 Gaussian 16, Revision C.01,
 Gaussian 16:  ES64L-G16RevC.01  3-Jul-2019

 ----------------------------------------------------------------------
 #P B3LYP/6-311++G(2d,p) scf=tight Int=Ultrafine scrf(Solvent=DiMethylS
 ulfoxide) NMR
 ----------------------------------------------------------------------

 --
 8e
 --
 Symbolic Z-matrix:
 Charge =  0 Multiplicity = 1

                         Standard orientation:
 ---------------------------------------------------------------------
 Center     Atomic      Atomic             Coordinates (Angstroms)
 Number     Number       Type             X           Y           Z
 ---------------------------------------------------------------------
      1          6           0        6.156723   -1.016475    0.916239
      2          1           0        5.731594   -0.425207    1.737082
      3          1           0        6.136354   -2.112018    0.976336
      4          1           0        7.216911   -0.736299    0.892432
      5          6           0        5.619058   -0.461809   -0.481150
      6          6           0        5.857394    1.018496   -0.481232
      7          1           0        6.929915    1.228823   -0.580902
      8          1           0        5.258642    1.572678   -1.214265
      9          1           0        5.628734    1.332411    0.544467
     10          6           0        6.197798   -1.127320   -1.726132
     11          1           0        7.247638   -0.878104   -1.923979
     12          1           0        6.043207   -2.212369   -1.690179
     13          1           0        5.707821   -0.799536   -2.650345
     14          8           0        4.195209   -0.531701   -0.568904
     15          6           0        3.584784   -1.773841   -0.495084
     16          8           0        4.149241   -2.831925   -0.445019
     17          7           0        2.252080   -1.550749   -0.142042
     18          1           0        1.926956   -0.591390   -0.132189
     19          6           0        1.469203   -2.595914    0.453939
     20          6           0        0.057399   -2.708682   -0.193299
     21          7           0       -0.431508   -1.677481   -1.006134
     22          1           0        0.026287   -0.774829   -1.004570
     23          8           0       -0.527449   -3.803400   -0.054555
     24          1           0        1.952184   -3.573189    0.338812
     25          6           0        1.413810   -2.489131    1.954051
     26          1           0        2.441595   -2.433820    2.335975
     27          1           0        0.889119   -3.370903    2.342713
     28          6           0        0.603047   -1.340236    2.426342
     29          6           0        1.106842    0.043080    2.391095
     30          6           0        0.320000    1.134382    2.855645
     31          1           0        0.661608    2.155285    2.713634
     32          1           0        2.095190    0.260610    1.996247
     33          6           0       -0.640051   -1.537234    3.109553
     34          1           0       -1.070078   -2.531499    3.190561
     35          6           0       -1.411245   -0.449326    3.591002
     36          1           0       -2.349159   -0.659009    4.097889
     37          6           0       -0.902921    0.861986    3.393427
     38          8           0       -1.788793    1.896869    3.539635
     39          6           0       -2.194088    2.380476    2.317004
     40          6           0       -3.004308    1.558878    1.524894
     41          6           0       -3.043861    1.698847    0.096703
     42          1           0       -3.357103    0.937903   -0.610913
     43          1           0       -3.504832    0.715068    1.989871
     44          6           0       -1.535167    3.519631    1.754565
     45          1           0       -0.859595    4.008873    2.449557
     46          6           0       -1.733678    3.713183    0.361720
     47          1           0       -1.271958    4.584024   -0.094324
     48          6           0       -2.375979    2.812541   -0.437078
     49          6           0       -2.100695    2.967181   -1.879823
     50          8           0       -1.654574    3.979167   -2.368813
     51          6           0       -2.461798    1.686221   -2.740779
     52          1           0       -3.482370    1.354148   -2.515022
     53          1           0       -2.286233    1.939801   -3.793021
     54          7           0       -1.622576    0.503641   -2.411020
     55          1           0       -1.158918    0.585175   -1.514183
     56          6           0       -1.955717   -0.792553   -2.787840
     57          8           0       -2.513322   -0.929616   -3.866302
     58          6           0       -1.624457   -1.931417   -1.819295
     59          1           0       -1.382385   -2.820992   -2.412918
     60          6           0       -2.953161   -2.129048   -0.991968
     61          6           0       -4.102615   -2.876254   -1.507558
     62          1           0       -4.170769   -3.298705   -2.505013
     63          6           0       -5.297590   -3.077062   -0.784230
     64          1           0       -6.076014   -3.651775   -1.275113
     65          6           0       -5.469140   -2.484549    0.463786
     66          1           0       -6.426640   -2.518186    0.973997
     67          6           0       -4.396057   -1.763356    0.996582
     68          1           0       -4.471178   -1.407712    2.020029
     69          6           0       -3.167138   -1.589317    0.290114
     70          1           0       -2.368377   -1.084411    0.824655
     71          6           0        1.909984    3.019061   -2.053046
     72          1           0        2.811996    2.441853   -2.289722
     73          1           0        2.195808    4.066580   -2.211611
     74          1           0        1.112336    2.815575   -2.778314
     75         16           0        1.254087    2.710462   -0.438735
     76          6           0        2.798306    2.619647    0.515303
     77          1           0        3.313067    3.559670    0.279135
     78          1           0        3.415896    1.780164    0.174806
     79          1           0        2.546442    2.640216    1.582257
     80          8           0        0.783045    1.253768   -0.552347
 ---------------------------------------------------------------------

 SCF Done:  E(RB3LYP) =  -2331.24774480     A.U. after   15 cycles

      1  C    Isotropic =   151.3434   Anisotropy =    50.8173

      2  H    Isotropic =    30.4732   Anisotropy =     4.8767

      3  H    Isotropic =    29.3091   Anisotropy =     6.8025

      4  H    Isotropic =    30.6303   Anisotropy =     8.4519

      5  C    Isotropic =   102.0627   Anisotropy =    60.5472

      6  C    Isotropic =   147.7068   Anisotropy =    43.1540

      7  H    Isotropic =    30.4233   Anisotropy =     8.2321

      8  H    Isotropic =    30.1566   Anisotropy =     7.0922

      9  H    Isotropic =    30.2559   Anisotropy =     4.9513

     10  C    Isotropic =   157.4298   Anisotropy =    44.7700

     11  H    Isotropic =    30.7133   Anisotropy =    10.5749

     12  H    Isotropic =    29.0775   Anisotropy =     6.6778

     13  H    Isotropic =    30.6652   Anisotropy =     6.5085

     14  O    Isotropic =   104.5367   Anisotropy =   106.2481

     15  C    Isotropic =    20.5936   Anisotropy =    75.0744

     16  O    Isotropic =    24.2231   Anisotropy =   416.7749

     17  N    Isotropic =   142.5461   Anisotropy =   119.8875

     18  H    Isotropic =    25.4534   Anisotropy =    10.4070

     19  C    Isotropic =   119.8020   Anisotropy =    40.5873

     20  C    Isotropic =    -7.4950   Anisotropy =   132.0101

     21  N    Isotropic =   116.8209   Anisotropy =   123.3213

     22  H    Isotropic =    25.3296   Anisotropy =     5.4837

     23  O    Isotropic =  -110.8302   Anisotropy =   645.7860

     24  H    Isotropic =    26.8031   Anisotropy =     5.1291

     25  C    Isotropic =   142.2051   Anisotropy =    13.7872

     26  H    Isotropic =    28.6998   Anisotropy =     6.3521

     27  H    Isotropic =    28.4167   Anisotropy =     6.4584

     28  C    Isotropic =    28.8038   Anisotropy =   204.6876

     29  C    Isotropic =    29.6349   Anisotropy =   193.3658

     30  C    Isotropic =    52.8053   Anisotropy =   167.3326

     31  H    Isotropic =    24.1800   Anisotropy =     8.3186

     32  H    Isotropic =    23.8745   Anisotropy =     6.6809

     33  C    Isotropic =    35.1667   Anisotropy =   172.3609

     34  H    Isotropic =    24.2430   Anisotropy =     6.1361

     35  C    Isotropic =    49.6421   Anisotropy =   164.1474

     36  H    Isotropic =    23.6827   Anisotropy =     3.4940

     37  C    Isotropic =    15.0360   Anisotropy =   135.6636

     38  O    Isotropic =   160.5125   Anisotropy =   111.4723

     39  C    Isotropic =    -3.6267   Anisotropy =   156.9088

     40  C    Isotropic =    43.8203   Anisotropy =   184.7338

     41  C    Isotropic =    34.9329   Anisotropy =   194.3042

     42  H    Isotropic =    23.8370   Anisotropy =     8.0583

     43  H    Isotropic =    24.0253   Anisotropy =     6.2812

     44  C    Isotropic =    41.3092   Anisotropy =   171.0284

     45  H    Isotropic =    23.4071   Anisotropy =     5.6616

     46  C    Isotropic =    43.6648   Anisotropy =   202.7045

     47  H    Isotropic =    23.4372   Anisotropy =     5.4186

     48  C    Isotropic =    48.8823   Anisotropy =   171.6084

     49  C    Isotropic =   -18.5737   Anisotropy =   156.8372

     50  O    Isotropic =  -236.5408   Anisotropy =   883.6932

     51  C    Isotropic =   125.1626   Anisotropy =    14.7419

     52  H    Isotropic =    27.1632   Anisotropy =     3.4178

     53  H    Isotropic =    27.8054   Anisotropy =     7.7293

     54  N    Isotropic =   127.9166   Anisotropy =   109.6717

     55  H    Isotropic =    27.1126   Anisotropy =     7.2715

     56  C    Isotropic =     1.9680   Anisotropy =   118.0525

     57  O    Isotropic =   -82.0104   Anisotropy =   613.1978

     58  C    Isotropic =   114.5336   Anisotropy =    16.0590

     59  H    Isotropic =    26.3554   Anisotropy =     7.9875

     60  C    Isotropic =    29.6680   Anisotropy =   173.7372

     61  C    Isotropic =    39.3594   Anisotropy =   186.8018

     62  H    Isotropic =    23.9150   Anisotropy =     8.5508

     63  C    Isotropic =    43.1600   Anisotropy =   184.6310

     64  H    Isotropic =    23.8660   Anisotropy =     5.2692

     65  C    Isotropic =    47.9908   Anisotropy =   189.8305

     66  H    Isotropic =    23.9109   Anisotropy =     5.4099

     67  C    Isotropic =    46.9595   Anisotropy =   183.8965

     68  H    Isotropic =    23.7157   Anisotropy =     8.9947

     69  C    Isotropic =    43.9751   Anisotropy =   197.9983

     70  H    Isotropic =    24.8226   Anisotropy =     5.8346

     71  C    Isotropic =   143.5928   Anisotropy =    58.1843

     72  H    Isotropic =    28.9695   Anisotropy =     6.1409

     73  H    Isotropic =    29.5513   Anisotropy =    10.0177

     74  H    Isotropic =    29.6434   Anisotropy =     5.6498

     75  S    Isotropic =   150.0829   Anisotropy =   391.8610

     76  C    Isotropic =   137.6673   Anisotropy =    58.2974

     77  H    Isotropic =    29.5400   Anisotropy =     7.9345

     78  H    Isotropic =    27.9374   Anisotropy =    12.2510

     79  H    Isotropic =    28.3053   Anisotropy =     3.1855

     80  O    Isotropic =   249.4488   Anisotropy =   198.8487

 The electronic state is 1-A.
 Alpha  occ. eigenvalues --  -88.96242 -19.16782 -19.16207 -19.14120 -19.11684
 Alpha  occ. eigenvalues --  -19.11614 -19.11403 -19.10194 -14.36539 -14.35078
 Alpha  occ. eigenvalues --  -14.34206 -10.33325 -10.30147 -10.30047 -10.28881
 Alpha  occ. eigenvalues --  -10.26026 -10.25773 -10.24499 -10.24443 -10.23357
 Alpha  occ. eigenvalues --  -10.23174 -10.21615 -10.21003 -10.20489 -10.20120
 Alpha  occ. eigenvalues --  -10.20119 -10.20047 -10.20010 -10.19949 -10.19707
 Alpha  occ. eigenvalues --  -10.19689 -10.19248 -10.19246 -10.19081 -10.19019
 Alpha  occ. eigenvalues --  -10.18767 -10.18753 -10.18501 -10.18486 -10.18444
 Alpha  occ. eigenvalues --  -10.16801 -10.16221 -10.15790  -8.03783  -6.00084
 Alpha  occ. eigenvalues --   -5.99950  -5.99364  -1.11429  -1.10248  -1.07637
 Alpha  occ. eigenvalues --   -1.06665  -1.04967  -1.03737  -1.02349  -0.95324
 Alpha  occ. eigenvalues --   -0.94197  -0.92650  -0.88051  -0.86204  -0.86052
 Alpha  occ. eigenvalues --   -0.82122  -0.80793  -0.80206  -0.79411  -0.78239
 Alpha  occ. eigenvalues --   -0.77060  -0.76025  -0.75176  -0.74630  -0.74007
 Alpha  occ. eigenvalues --   -0.73110  -0.71219  -0.70111  -0.69352  -0.67946
 Alpha  occ. eigenvalues --   -0.65056  -0.64804  -0.63437  -0.62614  -0.61994
 Alpha  occ. eigenvalues --   -0.61461  -0.61276  -0.60502  -0.59645  -0.59284
 Alpha  occ. eigenvalues --   -0.58436  -0.57313  -0.56051  -0.55238  -0.53113
 Alpha  occ. eigenvalues --   -0.52450  -0.52146  -0.51874  -0.51331  -0.50033
 Alpha  occ. eigenvalues --   -0.49699  -0.49103  -0.48462  -0.48216  -0.48006
 Alpha  occ. eigenvalues --   -0.47718  -0.47610  -0.47413  -0.47148  -0.46938
 Alpha  occ. eigenvalues --   -0.46609  -0.46359  -0.46038  -0.45574  -0.45300
 Alpha  occ. eigenvalues --   -0.45088  -0.44878  -0.44701  -0.44154  -0.43923
 Alpha  occ. eigenvalues --   -0.43819  -0.43461  -0.43253  -0.42805  -0.42279
 Alpha  occ. eigenvalues --   -0.41988  -0.41914  -0.41614  -0.41167  -0.40721
 Alpha  occ. eigenvalues --   -0.40592  -0.40077  -0.39813  -0.39506  -0.38678
 Alpha  occ. eigenvalues --   -0.38502  -0.38104  -0.37778  -0.37420  -0.37119
 Alpha  occ. eigenvalues --   -0.37002  -0.36528  -0.36200  -0.35886  -0.35765
 Alpha  occ. eigenvalues --   -0.35492  -0.35169  -0.34898  -0.34024  -0.31293
 Alpha  occ. eigenvalues --   -0.30663  -0.29990  -0.29735  -0.29568  -0.29378
 Alpha  occ. eigenvalues --   -0.28822  -0.28363  -0.27886  -0.27558  -0.27106
 Alpha  occ. eigenvalues --   -0.26720  -0.26559  -0.25895  -0.25520  -0.25355
 Alpha  occ. eigenvalues --   -0.24255
 Alpha virt. eigenvalues --   -0.08494  -0.05363  -0.04642  -0.04048  -0.03085
 Alpha virt. eigenvalues --   -0.02592  -0.02114  -0.01021  -0.00516  -0.00488
 Alpha virt. eigenvalues --   -0.00112   0.00002   0.00131   0.00341   0.00731

 Mulliken charges:
               1
     1  C   -0.636683
     2  H    0.134881
     3  H    0.163190
     4  H    0.175805
     5  C    0.586043
     6  C   -0.514578
     7  H    0.166138
     8  H    0.170044
     9  H    0.181563
    10  C   -0.528935
    11  H    0.165517
    12  H    0.173500
    13  H    0.145869
    14  O   -0.305529
    15  C    0.688899
    16  O   -0.423098
    17  N   -0.451207
    18  H    0.089532
    19  C   -0.103201
    20  C    0.156673
    21  N   -0.377966
    22  H    0.384429
    23  O   -0.422670
    24  H    0.198111
    25  C   -0.595655
    26  H    0.185931
    27  H    0.190804
    28  C    0.745644
    29  C   -0.304293
    30  C   -0.211155
    31  H    0.167412
    32  H    0.172989
    33  C   -0.303355
    34  H    0.171285
    35  C   -0.382507
    36  H    0.215862
    37  C   -0.013472
    38  O   -0.388645
    39  C    0.202195
    40  C    0.078428
    41  C   -0.528099
    42  H    0.118504
    43  H    0.191567
    44  C   -0.291703
    45  H    0.225161
    46  C   -0.073624
    47  H    0.185606
    48  C    0.197649
    49  C    0.050980
    50  O   -0.392342
    51  C   -0.199512
    52  H    0.214788
    53  H    0.195913
    54  N   -0.335587
    55  H    0.077150
    56  C    0.210126
    57  O   -0.488441
    58  C    0.085211
    59  H    0.207107
    60  C    0.338691
    61  C   -0.190229
    62  H    0.182326
    63  C   -0.328421
    64  H    0.163785
    65  C   -0.342833
    66  H    0.168207
    67  C   -0.197763
    68  H    0.185079
    69  C    0.023450
    70  H    0.486995
    71  C   -0.378767
    72  H    0.178032
    73  H    0.221820
    74  H    0.233246
    75  S    0.259153
    76  C   -0.549716
    77  H    0.226630
    78  H    0.014140
    79  H    0.202351
    80  O   -0.294422
 Sum of Mulliken charges =  -0.00000

 Dipole moment (field-independent basis, Debye):
    X=              6.3584    Y=              9.0027    Z=              5.0402  Tot=             12.1195
 Quadrupole moment (field-independent basis, Debye-Ang):
   XX=           -232.8809   YY=           -281.9921   ZZ=           -283.7801
   XY=             31.4372   XZ=            -11.7656   YZ=             -4.6386

 Normal termination of Gaussian 16 at Tue Aug 10 21:06:07 2021.
