 Gaussian 16, Revision C.01,
 Gaussian 16:  ES64L-G16RevC.01  3-Jul-2019

 ----------------------------------------------------------------------
 #P B3LYP/6-311++G(2d,p) scf=tight Int=Ultrafine scrf(Solvent=DiMethylS
 ulfoxide) NMR
 ----------------------------------------------------------------------

 --
 8e
 --
 Symbolic Z-matrix:
 Charge =  0 Multiplicity = 1

                         Standard orientation:
 ---------------------------------------------------------------------
 Center     Atomic      Atomic             Coordinates (Angstroms)
 Number     Number       Type             X           Y           Z
 ---------------------------------------------------------------------
      1          6           0        6.395171    0.079573    0.681562
      2          1           0        6.403575   -1.001080    0.869031
      3          1           0        7.427401    0.428453    0.554793
      4          1           0        5.878346    0.696664    1.425583
      5          6           0        5.603904    0.178986   -0.598723
      6          6           0        5.560247    1.665904   -0.977015
      7          1           0        6.559791    1.991156   -1.289962
      8          1           0        4.846708    1.816375   -1.796558
      9          1           0        5.155919    2.199352   -0.107923
     10          6           0        6.121127   -0.664792   -1.792855
     11          1           0        5.467757   -0.571213   -2.668359
     12          1           0        7.166522   -0.420857   -2.021696
     13          1           0        6.240636   -1.743514   -1.636274
     14          8           0        4.215929   -0.145375   -0.397968
     15          6           0        3.895426   -1.418162    0.066180
     16          8           0        4.507736   -2.408292    0.163392
     17          7           0        2.569473   -1.391091    0.203290
     18          1           0        2.174651   -0.481762   -0.003708
     19          6           0        1.741437   -2.577036    0.452894
     20          6           0        0.531301   -2.614378   -0.416098
     21          7           0        0.158258   -1.595475   -1.389681
     22          1           0        0.772496   -0.814311   -1.589649
     23          8           0       -0.175358   -3.570165   -0.313074
     24          1           0        2.245567   -3.478142    0.083750
     25          6           0        1.413214   -2.812777    1.940855
     26          1           0        2.341453   -2.806887    2.524934
     27          1           0        1.006394   -3.825216    2.057803
     28          6           0        0.382151   -1.830763    2.560603
     29          6           0        0.791098   -0.576995    3.114350
     30          6           0       -0.058630    0.335432    3.680102
     31          1           0        0.289567    1.275961    4.096678
     32          1           0        1.859087   -0.382433    3.144755
     33          6           0       -0.971857   -2.124871    2.701953
     34          1           0       -1.373642   -3.086198    2.395914
     35          6           0       -1.904651   -1.158461    3.188278
     36          1           0       -2.959504   -1.377454    3.331630
     37          6           0       -1.487848    0.075611    3.722143
     38          8           0       -2.354864    1.141107    3.782026
     39          6           0       -2.737674    1.777217    2.566433
     40          6           0       -3.578128    1.166624    1.604571
     41          6           0       -3.668183    1.695530    0.315382
     42          1           0       -4.332326    1.216638   -0.397703
     43          1           0       -4.095928    0.280741    1.959789
     44          6           0       -1.987886    2.964392    2.200941
     45          1           0       -1.376649    3.424094    2.972039
     46          6           0       -1.922536    3.315255    0.845215
     47          1           0       -1.240544    4.084003    0.495495
     48          6           0       -2.761358    2.709401   -0.089011
     49          6           0       -2.478420    2.922577   -1.535945
     50          8           0       -2.136138    4.001096   -1.939986
     51          6           0       -2.491765    1.715749   -2.406704
     52          1           0       -3.493755    1.277258   -2.326526
     53          1           0       -2.194124    2.149545   -3.369114
     54          7           0       -1.464383    0.757625   -2.156141
     55          1           0       -0.896313    0.649657   -1.324181
     56          6           0       -1.468757   -0.388175   -2.911947
     57          8           0       -1.914878   -0.416931   -4.064196
     58          6           0       -1.033185   -1.693264   -2.244056
     59          1           0       -0.853083   -2.437031   -3.030141
     60          6           0       -2.384127   -2.159081   -1.574384
     61          6           0       -3.453567   -2.627512   -2.376571
     62          1           0       -3.230513   -2.826410   -3.420366
     63          6           0       -4.789828   -2.670829   -1.934465
     64          1           0       -5.604809   -2.981523   -2.582777
     65          6           0       -5.010816   -2.375676   -0.571456
     66          1           0       -5.996199   -2.420389   -0.117212
     67          6           0       -3.956707   -2.042385    0.310134
     68          1           0       -4.177413   -1.843919    1.354479
     69          6           0       -2.669696   -1.819607   -0.235495
     70          1           0       -1.887856   -1.499102    0.447396
     71          6           0        1.731389    3.778330   -1.117552
     72          1           0        1.173227    3.985927   -2.039076
     73          1           0        2.745154    3.488258   -1.419201
     74          1           0        1.716583    4.589442   -0.378692
     75         16           0        0.957269    2.378693   -0.355043
     76          6           0        2.172990    2.464676    0.995254
     77          1           0        1.781838    3.121727    1.781438
     78          1           0        3.210449    2.712547    0.739759
     79          1           0        2.224899    1.459037    1.430255
     80          8           0        1.322809    1.267453   -1.237124
 ---------------------------------------------------------------------

 SCF Done:  E(RB3LYP) =  -2331.22820324     A.U. after   15 cycles

      1  C    Isotropic =   154.8941   Anisotropy =    37.9616

      2  H    Isotropic =    29.0827   Anisotropy =     5.8305

      3  H    Isotropic =    30.3594   Anisotropy =     9.3302

      4  H    Isotropic =    30.4697   Anisotropy =     5.0225

      5  C    Isotropic =   103.5384   Anisotropy =    66.5537

      6  C    Isotropic =   144.3205   Anisotropy =    46.1018

      7  H    Isotropic =    30.3403   Anisotropy =     8.1604

      8  H    Isotropic =    30.4168   Anisotropy =     5.6502

      9  H    Isotropic =    30.2356   Anisotropy =     5.9800

     10  C    Isotropic =   157.8679   Anisotropy =    48.7598

     11  H    Isotropic =    30.6528   Anisotropy =     7.0220

     12  H    Isotropic =    30.7914   Anisotropy =    10.5120

     13  H    Isotropic =    29.7420   Anisotropy =     6.6858

     14  O    Isotropic =   124.3951   Anisotropy =   115.5659

     15  C    Isotropic =    29.2514   Anisotropy =    74.6742

     16  O    Isotropic =    61.9191   Anisotropy =   377.3039

     17  N    Isotropic =   150.6925   Anisotropy =   105.2793

     18  H    Isotropic =    26.5638   Anisotropy =     8.8876

     19  C    Isotropic =   124.5016   Anisotropy =    28.1840

     20  C    Isotropic =     4.2888   Anisotropy =   106.9576

     21  N    Isotropic =   122.1342   Anisotropy =   117.5908

     22  H    Isotropic =    25.4642   Anisotropy =     6.6643

     23  O    Isotropic =  -111.5356   Anisotropy =   663.2303

     24  H    Isotropic =    26.9982   Anisotropy =     4.5802

     25  C    Isotropic =   139.2677   Anisotropy =    19.3213

     26  H    Isotropic =    28.7195   Anisotropy =     5.9712

     27  H    Isotropic =    28.2010   Anisotropy =     6.6087

     28  C    Isotropic =    35.5797   Anisotropy =   197.5599

     29  C    Isotropic =    43.8225   Anisotropy =   169.9127

     30  C    Isotropic =    47.0512   Anisotropy =   170.6719

     31  H    Isotropic =    24.0862   Anisotropy =     5.4048

     32  H    Isotropic =    24.3333   Anisotropy =     6.0335

     33  C    Isotropic =    41.6500   Anisotropy =   175.1377

     34  H    Isotropic =    24.2586   Anisotropy =     6.4819

     35  C    Isotropic =    47.1556   Anisotropy =   168.2641

     36  H    Isotropic =    23.5618   Anisotropy =     4.1731

     37  C    Isotropic =     3.3389   Anisotropy =   146.4654

     38  O    Isotropic =   154.3776   Anisotropy =   136.2890

     39  C    Isotropic =    -8.9403   Anisotropy =   142.0403

     40  C    Isotropic =    48.6989   Anisotropy =   169.8289

     41  C    Isotropic =    42.3906   Anisotropy =   191.8643

     42  H    Isotropic =    24.7763   Anisotropy =     5.0777

     43  H    Isotropic =    23.6279   Anisotropy =     6.0342

     44  C    Isotropic =    44.8566   Anisotropy =   173.0456

     45  H    Isotropic =    23.9765   Anisotropy =     5.4013

     46  C    Isotropic =    44.5026   Anisotropy =   189.0169

     47  H    Isotropic =    24.3919   Anisotropy =     3.6039

     48  C    Isotropic =    40.6642   Anisotropy =   175.1243

     49  C    Isotropic =   -23.3541   Anisotropy =   180.4347

     50  O    Isotropic =  -279.9502   Anisotropy =   906.8884

     51  C    Isotropic =   128.8741   Anisotropy =    11.3400

     52  H    Isotropic =    28.3035   Anisotropy =     2.9196

     53  H    Isotropic =    27.3951   Anisotropy =     8.7231

     54  N    Isotropic =   138.6766   Anisotropy =   119.7818

     55  H    Isotropic =    27.0251   Anisotropy =     4.0327

     56  C    Isotropic =    -1.9839   Anisotropy =   130.3594

     57  O    Isotropic =   -90.1416   Anisotropy =   613.6854

     58  C    Isotropic =   110.6700   Anisotropy =    18.5688

     59  H    Isotropic =    26.5967   Anisotropy =     8.3798

     60  C    Isotropic =    32.9275   Anisotropy =   176.3421

     61  C    Isotropic =    46.9734   Anisotropy =   183.3538

     62  H    Isotropic =    24.1524   Anisotropy =     7.9771

     63  C    Isotropic =    49.3026   Anisotropy =   182.7005

     64  H    Isotropic =    23.8142   Anisotropy =     4.1339

     65  C    Isotropic =    43.9898   Anisotropy =   193.8558

     66  H    Isotropic =    23.9563   Anisotropy =     6.3519

     67  C    Isotropic =    42.6296   Anisotropy =   188.9509

     68  H    Isotropic =    23.2370   Anisotropy =     8.2363

     69  C    Isotropic =    40.3957   Anisotropy =   205.5775

     70  H    Isotropic =    24.8533   Anisotropy =     8.0575

     71  C    Isotropic =   134.6921   Anisotropy =    60.3337

     72  H    Isotropic =    29.3463   Anisotropy =     6.9031

     73  H    Isotropic =    29.2794   Anisotropy =     4.9811

     74  H    Isotropic =    29.2104   Anisotropy =     7.7373

     75  S    Isotropic =   189.6330   Anisotropy =   507.4781

     76  C    Isotropic =   134.5334   Anisotropy =    61.4263

     77  H    Isotropic =    29.2905   Anisotropy =     5.5583

     78  H    Isotropic =    28.7409   Anisotropy =     5.9580

     79  H    Isotropic =    29.3455   Anisotropy =     5.6927

     80  O    Isotropic =   276.5654   Anisotropy =   211.4125

 The electronic state is 1-A.
 Alpha  occ. eigenvalues --  -88.95897 -19.16959 -19.15931 -19.13759 -19.11221
 Alpha  occ. eigenvalues --  -19.11196 -19.11073 -19.10676 -14.35230 -14.35218
 Alpha  occ. eigenvalues --  -14.33690 -10.31927 -10.29741 -10.29577 -10.28072
 Alpha  occ. eigenvalues --  -10.26618 -10.25087 -10.24574 -10.24203 -10.23989
 Alpha  occ. eigenvalues --  -10.22463 -10.20619 -10.20334 -10.20263 -10.20206
 Alpha  occ. eigenvalues --  -10.20198 -10.20144 -10.19963 -10.19627 -10.19568
 Alpha  occ. eigenvalues --  -10.19498 -10.19098 -10.19045 -10.18957 -10.18736
 Alpha  occ. eigenvalues --  -10.18721 -10.18576 -10.18393 -10.18334 -10.18198
 Alpha  occ. eigenvalues --  -10.16241 -10.16156 -10.16049  -8.03534  -5.99832
 Alpha  occ. eigenvalues --   -5.99662  -5.99145  -1.11956  -1.08100  -1.08037
 Alpha  occ. eigenvalues --   -1.07916  -1.06038  -1.05726  -1.04683  -0.95045
 Alpha  occ. eigenvalues --   -0.94510  -0.92055  -0.87843  -0.86441  -0.85875
 Alpha  occ. eigenvalues --   -0.82058  -0.81061  -0.79832  -0.79200  -0.77690
 Alpha  occ. eigenvalues --   -0.77287  -0.75984  -0.75773  -0.75095  -0.74278
 Alpha  occ. eigenvalues --   -0.71971  -0.70666  -0.69935  -0.69545  -0.68385
 Alpha  occ. eigenvalues --   -0.65147  -0.63978  -0.63000  -0.62105  -0.61625
 Alpha  occ. eigenvalues --   -0.61359  -0.60878  -0.60520  -0.59734  -0.58496
 Alpha  occ. eigenvalues --   -0.57879  -0.57547  -0.55852  -0.54870  -0.53657
 Alpha  occ. eigenvalues --   -0.52331  -0.51776  -0.51624  -0.51349  -0.49985
 Alpha  occ. eigenvalues --   -0.49729  -0.49211  -0.48357  -0.48053  -0.47892
 Alpha  occ. eigenvalues --   -0.47746  -0.47578  -0.47430  -0.46986  -0.46886
 Alpha  occ. eigenvalues --   -0.46642  -0.46504  -0.45896  -0.45682  -0.45258
 Alpha  occ. eigenvalues --   -0.45056  -0.44836  -0.44694  -0.44525  -0.44216
 Alpha  occ. eigenvalues --   -0.43623  -0.43492  -0.43215  -0.42667  -0.42485
 Alpha  occ. eigenvalues --   -0.42431  -0.42053  -0.41681  -0.41431  -0.40590
 Alpha  occ. eigenvalues --   -0.40311  -0.39814  -0.39537  -0.39258  -0.38635
 Alpha  occ. eigenvalues --   -0.38274  -0.38148  -0.37758  -0.37630  -0.37090
 Alpha  occ. eigenvalues --   -0.36653  -0.36436  -0.35995  -0.35677  -0.35507
 Alpha  occ. eigenvalues --   -0.35348  -0.35126  -0.34742  -0.33901  -0.30898
 Alpha  occ. eigenvalues --   -0.30878  -0.30174  -0.29707  -0.29184  -0.28691
 Alpha  occ. eigenvalues --   -0.28633  -0.28331  -0.27762  -0.27430  -0.26951
 Alpha  occ. eigenvalues --   -0.26683  -0.26412  -0.25866  -0.25634  -0.25185
 Alpha  occ. eigenvalues --   -0.24756
 Alpha virt. eigenvalues --   -0.08023  -0.04817  -0.04556  -0.04449  -0.02931
 Alpha virt. eigenvalues --   -0.02161  -0.01661  -0.01086  -0.00926  -0.00700
 Alpha virt. eigenvalues --   -0.00351   0.00063   0.00339   0.00452   0.00812

 Mulliken charges:
               1
     1  C   -0.561816
     2  H    0.175498
     3  H    0.177234
     4  H    0.121874
     5  C    0.511379
     6  C   -0.448771
     7  H    0.159625
     8  H    0.178383
     9  H    0.149621
    10  C   -0.626096
    11  H    0.135205
    12  H    0.162900
    13  H    0.181425
    14  O   -0.260556
    15  C    0.790391
    16  O   -0.437417
    17  N   -0.449569
    18  H    0.027580
    19  C   -0.375573
    20  C    0.165484
    21  N   -0.399593
    22  H    0.422376
    23  O   -0.336047
    24  H    0.192529
    25  C   -0.796445
    26  H    0.202547
    27  H    0.195894
    28  C    0.991889
    29  C   -0.335889
    30  C   -0.406760
    31  H    0.209252
    32  H    0.184639
    33  C   -0.428087
    34  H    0.204867
    35  C   -0.271922
    36  H    0.219302
    37  C    0.166869
    38  O   -0.420061
    39  C    0.120581
    40  C   -0.114974
    41  C   -0.246901
    42  H    0.203914
    43  H    0.174622
    44  C   -0.372625
    45  H    0.215445
    46  C   -0.101980
    47  H    0.228987
    48  C    0.491432
    49  C   -0.216883
    50  O   -0.382970
    51  C   -0.000655
    52  H    0.194776
    53  H    0.187438
    54  N   -0.231129
    55  H   -0.106011
    56  C    0.291647
    57  O   -0.503716
    58  C    0.063178
    59  H    0.195800
    60  C    0.162600
    61  C   -0.085268
    62  H    0.170465
    63  C   -0.393611
    64  H    0.175860
    65  C   -0.267888
    66  H    0.156097
    67  C   -0.123487
    68  H    0.121454
    69  C   -0.012921
    70  H    0.540920
    71  C   -0.272234
    72  H    0.186421
    73  H    0.168649
    74  H    0.201131
    75  S    0.147938
    76  C   -0.497724
    77  H    0.218851
    78  H    0.171625
    79  H    0.269209
    80  O   -0.500222
 Sum of Mulliken charges =  -0.00000

 Dipole moment (field-independent basis, Debye):
    X=              3.7637    Y=              6.6232    Z=              6.7129  Tot=             10.1536
 Quadrupole moment (field-independent basis, Debye-Ang):
   XX=           -242.4639   YY=           -276.1655   ZZ=           -290.1829
   XY=             28.8358   XZ=             -4.5290   YZ=              7.2183

 Normal termination of Gaussian 16 at Tue Aug 10 21:04:06 2021.
