 Gaussian 16, Revision C.01,
 Gaussian 16:  ES64L-G16RevC.01  3-Jul-2019

 ----------------------------------------------------------------------
 #P B3LYP/6-311++G(2d,p) scf=tight Int=Ultrafine scrf(Solvent=DiMethylS
 ulfoxide) NMR
 ----------------------------------------------------------------------

 --
 8e
 --
 Symbolic Z-matrix:
 Charge =  0 Multiplicity = 1

                         Standard orientation:
 ---------------------------------------------------------------------
 Center     Atomic      Atomic             Coordinates (Angstroms)
 Number     Number       Type             X           Y           Z
 ---------------------------------------------------------------------
      1          6           0        5.632510    0.412579    0.761218
      2          1           0        6.478431    1.110656    0.778664
      3          1           0        4.684074    0.868993    1.069996
      4          1           0        5.817371   -0.432681    1.435416
      5          6           0        5.331257   -0.064141   -0.649953
      6          6           0        5.443176    1.183809   -1.481953
      7          1           0        4.774380    1.995459   -1.169730
      8          1           0        6.426817    1.648784   -1.621062
      9          1           0        5.162433    0.976197   -2.520824
     10          6           0        6.259528   -1.110138   -1.269278
     11          1           0        6.494428   -1.888127   -0.532880
     12          1           0        5.745218   -1.624826   -2.091184
     13          1           0        7.148322   -0.560004   -1.598404
     14          8           0        4.001811   -0.458312   -0.731552
     15          6           0        3.555495   -1.530196   -0.086447
     16          8           0        4.217005   -2.206470    0.671910
     17          7           0        2.221414   -1.613354   -0.339756
     18          1           0        1.785469   -0.836212   -0.820337
     19          6           0        1.337707   -2.724584    0.021275
     20          6           0       -0.029489   -2.724384   -0.685423
     21          7           0       -0.429843   -1.545493   -1.289723
     22          1           0        0.135086   -0.741929   -1.046840
     23          8           0       -0.655250   -3.779490   -0.730448
     24          1           0        1.826782   -3.581774   -0.457320
     25          6           0        1.313415   -3.085927    1.528748
     26          1           0        2.351663   -3.348033    1.765874
     27          1           0        0.722792   -4.000309    1.667091
     28          6           0        0.638666   -1.997219    2.333812
     29          6           0        1.287388   -0.825902    2.570746
     30          6           0        0.430817    0.214022    3.140340
     31          1           0        0.940902    1.171780    3.190432
     32          1           0        2.203924   -0.477839    2.102523
     33          6           0       -0.617402   -2.329081    2.839389
     34          1           0       -1.011931   -3.339699    2.790206
     35          6           0       -1.417281   -1.271884    3.360960
     36          1           0       -2.430932   -1.507743    3.672326
     37          6           0       -0.892188    0.013001    3.495896
     38          8           0       -1.656998    1.103178    3.856170
     39          6           0       -2.068172    1.925676    2.903173
     40          6           0       -3.071068    1.445764    2.077878
     41          6           0       -3.127026    2.046264    0.795385
     42          1           0       -3.939279    1.663378    0.183287
     43          1           0       -3.690701    0.600114    2.363555
     44          6           0       -1.303792    3.035493    2.563351
     45          1           0       -0.542296    3.314973    3.285085
     46          6           0       -1.362787    3.592934    1.240189
     47          1           0       -0.658480    4.388902    1.016156
     48          6           0       -2.284552    3.050762    0.339020
     49          6           0       -2.271525    3.329679   -1.127755
     50          8           0       -1.804661    4.389343   -1.600075
     51          6           0       -2.640906    2.182354   -2.126686
     52          1           0       -3.658015    1.870932   -1.855621
     53          1           0       -2.579808    2.662077   -3.111388
     54          7           0       -1.682398    1.029609   -2.013408
     55          1           0       -1.241886    0.833130   -1.122465
     56          6           0       -1.743460   -0.064803   -2.849025
     57          8           0       -1.985414   -0.004517   -4.030332
     58          6           0       -1.573031   -1.394547   -2.180743
     59          1           0       -1.437579   -2.064642   -3.038582
     60          6           0       -2.858459   -1.749677   -1.499869
     61          6           0       -3.757469   -2.661645   -2.120672
     62          1           0       -3.541334   -3.035665   -3.116507
     63          6           0       -4.938113   -2.923488   -1.454598
     64          1           0       -5.657992   -3.432427   -2.087484
     65          6           0       -5.342908   -2.304532   -0.257863
     66          1           0       -6.266453   -2.580300    0.243201
     67          6           0       -4.408362   -1.455098    0.406969
     68          1           0       -4.592278   -1.025505    1.386828
     69          6           0       -3.162848   -1.252568   -0.247482
     70          1           0       -2.467536   -0.559768    0.217535
     71          6           0        2.413648    2.825742    0.476862
     72          1           0        2.941007    3.659588   -0.003893
     73          1           0        2.976483    2.328840    1.276864
     74          1           0        1.484717    3.217363    0.908401
     75         16           0        1.897047    1.645126   -0.792535
     76          6           0        1.420835    3.036207   -1.872455
     77          1           0        2.224512    3.629965   -2.323756
     78          1           0        0.787660    3.714043   -1.287185
     79          1           0        0.770955    2.702657   -2.691245
     80          8           0        0.577819    0.995705   -0.478927
 ---------------------------------------------------------------------

 SCF Done:  E(RB3LYP) =  -2331.22843446     A.U. after   15 cycles

      1  C    Isotropic =   150.5965   Anisotropy =    41.5178

      2  H    Isotropic =    30.1497   Anisotropy =     8.4280

      3  H    Isotropic =    30.2074   Anisotropy =     6.4701

      4  H    Isotropic =    29.3309   Anisotropy =     5.6589

      5  C    Isotropic =   115.7281   Anisotropy =    63.1462

      6  C    Isotropic =   151.1454   Anisotropy =    47.0917

      7  H    Isotropic =    31.1004   Anisotropy =     7.9156

      8  H    Isotropic =    30.6761   Anisotropy =     9.1959

      9  H    Isotropic =    30.9707   Anisotropy =     6.6683

     10  C    Isotropic =   153.6255   Anisotropy =    45.3638

     11  H    Isotropic =    29.5721   Anisotropy =     7.3016

     12  H    Isotropic =    30.4752   Anisotropy =     6.6003

     13  H    Isotropic =    30.4723   Anisotropy =     9.5999

     14  O    Isotropic =   118.5924   Anisotropy =    85.5678

     15  C    Isotropic =    26.5996   Anisotropy =    63.9772

     16  O    Isotropic =    41.7441   Anisotropy =   393.6432

     17  N    Isotropic =   149.7733   Anisotropy =    95.5103

     18  H    Isotropic =    26.7023   Anisotropy =     9.3498

     19  C    Isotropic =   120.2103   Anisotropy =    31.4051

     20  C    Isotropic =     5.3672   Anisotropy =   116.9371

     21  N    Isotropic =   115.6928   Anisotropy =    87.9438

     22  H    Isotropic =    24.4540   Anisotropy =    11.0963

     23  O    Isotropic =   -63.3902   Anisotropy =   601.5700

     24  H    Isotropic =    27.5421   Anisotropy =     5.9662

     25  C    Isotropic =   141.9021   Anisotropy =    30.3380

     26  H    Isotropic =    27.6388   Anisotropy =     6.8182

     27  H    Isotropic =    29.0914   Anisotropy =     5.8491

     28  C    Isotropic =    41.0921   Anisotropy =   202.8943

     29  C    Isotropic =    42.8791   Anisotropy =   178.1718

     30  C    Isotropic =    41.1175   Anisotropy =   186.1631

     31  H    Isotropic =    24.1832   Anisotropy =     8.3958

     32  H    Isotropic =    23.7559   Anisotropy =     7.2103

     33  C    Isotropic =    44.3841   Anisotropy =   154.2568

     34  H    Isotropic =    24.4444   Anisotropy =     5.9443

     35  C    Isotropic =    48.7918   Anisotropy =   168.9177

     36  H    Isotropic =    24.2071   Anisotropy =     3.1677

     37  C    Isotropic =    19.3880   Anisotropy =   120.3243

     38  O    Isotropic =   172.6053   Anisotropy =   149.2236

     39  C    Isotropic =     8.7007   Anisotropy =   155.8063

     40  C    Isotropic =    47.0839   Anisotropy =   170.1862

     41  C    Isotropic =    37.0363   Anisotropy =   199.2273

     42  H    Isotropic =    23.8991   Anisotropy =     5.4649

     43  H    Isotropic =    23.0823   Anisotropy =     5.5539

     44  C    Isotropic =    45.6149   Anisotropy =   171.6710

     45  H    Isotropic =    23.6767   Anisotropy =     5.0081

     46  C    Isotropic =    42.3228   Anisotropy =   196.2248

     47  H    Isotropic =    23.2642   Anisotropy =     3.8747

     48  C    Isotropic =    46.6522   Anisotropy =   167.7553

     49  C    Isotropic =   -36.1467   Anisotropy =   180.6294

     50  O    Isotropic =  -324.7139   Anisotropy =   964.2539

     51  C    Isotropic =   120.3356   Anisotropy =    17.8360

     52  H    Isotropic =    27.7283   Anisotropy =     2.7075

     53  H    Isotropic =    27.4341   Anisotropy =     7.1884

     54  N    Isotropic =   131.8390   Anisotropy =    94.3975

     55  H    Isotropic =    26.5572   Anisotropy =     7.4558

     56  C    Isotropic =     6.5940   Anisotropy =   119.9547

     57  O    Isotropic =   -88.8699   Anisotropy =   598.4433

     58  C    Isotropic =   116.3031   Anisotropy =    14.7027

     59  H    Isotropic =    26.9397   Anisotropy =     7.1405

     60  C    Isotropic =    34.2554   Anisotropy =   187.4275

     61  C    Isotropic =    42.4582   Anisotropy =   171.7775

     62  H    Isotropic =    23.8862   Anisotropy =     8.6347

     63  C    Isotropic =    50.8008   Anisotropy =   187.0994

     64  H    Isotropic =    24.3773   Anisotropy =     5.5080

     65  C    Isotropic =    45.4979   Anisotropy =   191.4879

     66  H    Isotropic =    23.8228   Anisotropy =     5.8700

     67  C    Isotropic =    41.0381   Anisotropy =   195.6275

     68  H    Isotropic =    23.1389   Anisotropy =     8.8970

     69  C    Isotropic =    46.4942   Anisotropy =   193.5138

     70  H    Isotropic =    24.9764   Anisotropy =     6.6150

     71  C    Isotropic =   135.8105   Anisotropy =    58.3959

     72  H    Isotropic =    29.0222   Anisotropy =     7.1560

     73  H    Isotropic =    28.4940   Anisotropy =     4.7444

     74  H    Isotropic =    29.0040   Anisotropy =     6.6699

     75  S    Isotropic =   174.5699   Anisotropy =   500.8941

     76  C    Isotropic =   136.7576   Anisotropy =    63.8751

     77  H    Isotropic =    29.4678   Anisotropy =     9.1215

     78  H    Isotropic =    29.4284   Anisotropy =     4.3287

     79  H    Isotropic =    29.6267   Anisotropy =     5.9963

     80  O    Isotropic =   260.9136   Anisotropy =   205.1736

 The electronic state is 1-A.
 Alpha  occ. eigenvalues --  -88.96341 -19.16724 -19.16425 -19.13710 -19.11810
 Alpha  occ. eigenvalues --  -19.11745 -19.11018 -19.10896 -14.35424 -14.34632
 Alpha  occ. eigenvalues --  -14.34572 -10.33076 -10.29759 -10.29385 -10.29142
 Alpha  occ. eigenvalues --  -10.25432 -10.24738 -10.23886 -10.23680 -10.23561
 Alpha  occ. eigenvalues --  -10.23541 -10.21234 -10.20833 -10.20568 -10.20305
 Alpha  occ. eigenvalues --  -10.19782 -10.19633 -10.19573 -10.19456 -10.19249
 Alpha  occ. eigenvalues --  -10.19061 -10.18976 -10.18792 -10.18754 -10.18681
 Alpha  occ. eigenvalues --  -10.18556 -10.18551 -10.18383 -10.18164 -10.17964
 Alpha  occ. eigenvalues --  -10.16107 -10.16008 -10.15958  -8.03909  -6.00217
 Alpha  occ. eigenvalues --   -6.00033  -5.99497  -1.13560  -1.11177  -1.07258
 Alpha  occ. eigenvalues --   -1.05693  -1.05111  -1.05041  -1.03661  -0.95754
 Alpha  occ. eigenvalues --   -0.94388  -0.92561  -0.88449  -0.87036  -0.86700
 Alpha  occ. eigenvalues --   -0.82899  -0.81323  -0.80709  -0.79957  -0.78139
 Alpha  occ. eigenvalues --   -0.77256  -0.75781  -0.75653  -0.75202  -0.74334
 Alpha  occ. eigenvalues --   -0.71857  -0.71338  -0.70432  -0.69367  -0.68722
 Alpha  occ. eigenvalues --   -0.65764  -0.64840  -0.64197  -0.62859  -0.62821
 Alpha  occ. eigenvalues --   -0.61983  -0.61519  -0.61099  -0.59564  -0.59153
 Alpha  occ. eigenvalues --   -0.57965  -0.57697  -0.56827  -0.55716  -0.53302
 Alpha  occ. eigenvalues --   -0.52572  -0.52010  -0.51774  -0.50991  -0.50337
 Alpha  occ. eigenvalues --   -0.49626  -0.49372  -0.49194  -0.48487  -0.48140
 Alpha  occ. eigenvalues --   -0.48039  -0.48011  -0.47614  -0.47258  -0.47010
 Alpha  occ. eigenvalues --   -0.46708  -0.46594  -0.45964  -0.45722  -0.45585
 Alpha  occ. eigenvalues --   -0.45253  -0.44698  -0.44643  -0.44339  -0.44051
 Alpha  occ. eigenvalues --   -0.43545  -0.43302  -0.42868  -0.42681  -0.42160
 Alpha  occ. eigenvalues --   -0.41649  -0.41548  -0.41219  -0.40781  -0.40767
 Alpha  occ. eigenvalues --   -0.40317  -0.39934  -0.39728  -0.39457  -0.39102
 Alpha  occ. eigenvalues --   -0.38981  -0.38506  -0.37952  -0.37566  -0.36956
 Alpha  occ. eigenvalues --   -0.36855  -0.36702  -0.36509  -0.36237  -0.35576
 Alpha  occ. eigenvalues --   -0.35433  -0.34304  -0.34163  -0.33236  -0.31377
 Alpha  occ. eigenvalues --   -0.31194  -0.30808  -0.29953  -0.29500  -0.28874
 Alpha  occ. eigenvalues --   -0.28650  -0.27878  -0.27725  -0.27000  -0.26937
 Alpha  occ. eigenvalues --   -0.26785  -0.26460  -0.26131  -0.25845  -0.25562
 Alpha  occ. eigenvalues --   -0.25141
 Alpha virt. eigenvalues --   -0.08640  -0.05200  -0.04449  -0.03539  -0.02820
 Alpha virt. eigenvalues --   -0.02383  -0.01628  -0.01119  -0.00903  -0.00765
 Alpha virt. eigenvalues --   -0.00357  -0.00104   0.00110   0.00370   0.00865

 Mulliken charges:
               1
     1  C   -0.619003
     2  H    0.169669
     3  H    0.104044
     4  H    0.159732
     5  C    0.680696
     6  C   -0.559235
     7  H    0.176205
     8  H    0.158126
     9  H    0.166912
    10  C   -0.570659
    11  H    0.166977
    12  H    0.151504
    13  H    0.162835
    14  O   -0.311255
    15  C    0.619883
    16  O   -0.386998
    17  N   -0.657022
    18  H    0.232147
    19  C    0.138538
    20  C   -0.001438
    21  N   -0.353601
    22  H    0.162973
    23  O   -0.443845
    24  H    0.163898
    25  C   -0.774040
    26  H    0.233066
    27  H    0.184569
    28  C    0.589876
    29  C   -0.215013
    30  C    0.009445
    31  H    0.184296
    32  H    0.156166
    33  C   -0.346804
    34  H    0.180986
    35  C   -0.335265
    36  H    0.197541
    37  C    0.034198
    38  O   -0.432237
    39  C    0.337147
    40  C   -0.187782
    41  C   -0.463257
    42  H    0.193229
    43  H    0.197226
    44  C   -0.142293
    45  H    0.207163
    46  C   -0.318607
    47  H    0.214959
    48  C    0.287166
    49  C    0.096103
    50  O   -0.404823
    51  C   -0.310965
    52  H    0.190390
    53  H    0.197580
    54  N   -0.322182
    55  H   -0.005790
    56  C    0.315321
    57  O   -0.465489
    58  C    0.042089
    59  H    0.194650
    60  C    0.549101
    61  C   -0.003174
    62  H    0.177862
    63  C   -0.364345
    64  H    0.143071
    65  C   -0.451903
    66  H    0.170747
    67  C   -0.138172
    68  H    0.174176
    69  C   -0.019502
    70  H    0.444257
    71  C   -0.413456
    72  H    0.225476
    73  H    0.168149
    74  H    0.252076
    75  S    0.086080
    76  C   -0.471433
    77  H    0.220265
    78  H    0.241085
    79  H    0.232007
    80  O   -0.252068
 Sum of Mulliken charges =  -0.00000

 Dipole moment (field-independent basis, Debye):
    X=              3.8678    Y=              7.5570    Z=              3.1733  Tot=              9.0630
 Quadrupole moment (field-independent basis, Debye-Ang):
   XX=           -237.1946   YY=           -282.6403   ZZ=           -287.6727
   XY=             29.9942   XZ=            -20.3864   YZ=              5.8074

 Normal termination of Gaussian 16 at Tue Aug 10 21:29:12 2021.
