 Gaussian 16, Revision C.01,
 Gaussian 16:  ES64L-G16RevC.01  3-Jul-2019

 ----------------------------------------------------------------------
 #P B3LYP/6-311++G(2d,p) scf=tight Int=Ultrafine scrf(Solvent=DiMethylS
 ulfoxide) NMR
 ----------------------------------------------------------------------

 --
 8e
 --
 Symbolic Z-matrix:
 Charge =  0 Multiplicity = 1

                         Standard orientation:
 ---------------------------------------------------------------------
 Center     Atomic      Atomic             Coordinates (Angstroms)
 Number     Number       Type             X           Y           Z
 ---------------------------------------------------------------------
      1          6           0       -5.702935   -0.380679    1.630539
      2          1           0       -4.856079   -0.845579    2.148299
      3          1           0       -5.827002    0.663376    1.945102
      4          1           0       -6.612923   -0.834632    2.041489
      5          6           0       -5.545317   -0.314731    0.054446
      6          6           0       -5.680167   -1.781575   -0.548804
      7          1           0       -6.630604   -2.092783   -0.096412
      8          1           0       -5.679084   -1.813669   -1.645130
      9          1           0       -4.870699   -2.380346   -0.113619
     10          6           0       -6.519393    0.556672   -0.777912
     11          1           0       -7.388253    0.106131   -1.273632
     12          1           0       -6.730894    1.455119   -0.183780
     13          1           0       -5.924278    0.967585   -1.601820
     14          8           0       -4.190013    0.065990   -0.222554
     15          6           0       -3.797671    1.360073    0.018073
     16          8           0       -4.507303    2.319224    0.354435
     17          7           0       -2.444360    1.416652    0.219687
     18          1           0       -1.891825    0.593282    0.010300
     19          6           0       -1.675370    2.468978    0.930893
     20          6           0       -0.448152    2.867975    0.130362
     21          7           0        0.273434    1.858208   -0.554829
     22          1           0       -0.070202    0.913518   -0.437912
     23          8           0       -0.125901    4.049137    0.144278
     24          1           0       -2.229951    3.416077    0.937729
     25          6           0       -1.233872    2.107583    2.367442
     26          1           0       -2.107134    2.061200    3.030287
     27          1           0       -0.500210    2.840440    2.726166
     28          6           0       -0.575530    0.779260    2.513041
     29          6           0       -1.471256   -0.331293    2.950282
     30          6           0       -0.814028   -1.584566    3.236406
     31          1           0       -1.417863   -2.428706    3.557663
     32          1           0       -2.546795   -0.382821    3.084752
     33          6           0        0.796273    0.688744    2.467306
     34          1           0        1.444650    1.548369    2.324045
     35          6           0        1.388108   -0.489718    2.919853
     36          1           0        2.467991   -0.608052    2.940080
     37          6           0        0.629819   -1.623239    3.230372
     38          8           0        1.251028   -2.848792    3.341099
     39          6           0        1.916817   -3.235752    2.251176
     40          6           0        3.286207   -2.945124    2.087498
     41          6           0        3.749687   -2.835243    0.748832
     42          1           0        4.752710   -2.440881    0.609894
     43          1           0        3.886449   -2.721393    2.964300
     44          6           0        1.078324   -3.382387    1.104923
     45          1           0        0.003156   -3.466229    1.238593
     46          6           0        1.597945   -3.350804   -0.199778
     47          1           0        0.889566   -3.366872   -1.022696
     48          6           0        2.916043   -2.936763   -0.338710
     49          6           0        3.358245   -2.327649   -1.624045
     50          8           0        4.518005   -2.375630   -2.014816
     51          6           0        2.319058   -1.637913   -2.543923
     52          1           0        2.904579   -1.390427   -3.438417
     53          1           0        1.557452   -2.367930   -2.841613
     54          7           0        1.757632   -0.424395   -1.817528
     55          1           0        1.522724   -0.605820   -0.849765
     56          6           0        1.803016    0.820607   -2.278327
     57          8           0        2.178679    1.091166   -3.390793
     58          6           0        1.480583    2.005517   -1.324556
     59          1           0        1.239025    2.797824   -2.042839
     60          6           0        2.720866    2.378303   -0.525357
     61          6           0        3.005487    3.771234   -0.539421
     62          1           0        2.418032    4.433799   -1.168837
     63          6           0        4.114445    4.279722    0.161800
     64          1           0        4.329873    5.302949   -0.129975
     65          6           0        4.967918    3.362678    0.836319
     66          1           0        5.905814    3.734600    1.237377
     67          6           0        4.736974    1.952284    0.874562
     68          1           0        5.467758    1.386241    1.444763
     69          6           0        3.663761    1.479921    0.130824
     70          1           0        3.412026    0.425511    0.188797
     71          6           0       -1.488828   -2.784246   -2.855673
     72          1           0       -1.907517   -3.185140   -3.787704
     73          1           0       -1.782156   -3.437857   -2.024849
     74          1           0       -0.398053   -2.826728   -2.959461
     75         16           0       -1.944944   -1.158797   -2.325558
     76          6           0       -1.307189   -0.232111   -3.668408
     77          1           0       -1.545170    0.837403   -3.620570
     78          1           0       -1.581718   -0.675539   -4.633583
     79          1           0       -0.223263   -0.349677   -3.546044
     80          8           0       -1.010390   -0.914768   -1.118344
 ---------------------------------------------------------------------

 SCF Done:  E(RB3LYP) =  -2331.21793229     A.U. after   15 cycles

      1  C    Isotropic =   156.4470   Anisotropy =    48.5654

      2  H    Isotropic =    30.2360   Anisotropy =     7.1812

      3  H    Isotropic =    29.6726   Anisotropy =     5.0584

      4  H    Isotropic =    30.3760   Anisotropy =     9.7752

      5  C    Isotropic =    95.7538   Anisotropy =    66.1006

      6  C    Isotropic =   144.0820   Anisotropy =    46.4924

      7  H    Isotropic =    30.4505   Anisotropy =     7.6783

      8  H    Isotropic =    30.0529   Anisotropy =     5.7776

      9  H    Isotropic =    30.2074   Anisotropy =     5.3043

     10  C    Isotropic =   151.4732   Anisotropy =    45.7693

     11  H    Isotropic =    29.9899   Anisotropy =     9.4103

     12  H    Isotropic =    29.1080   Anisotropy =     7.1731

     13  H    Isotropic =    30.3298   Anisotropy =     4.9236

     14  O    Isotropic =    91.2507   Anisotropy =   113.3057

     15  C    Isotropic =    14.4727   Anisotropy =    67.0119

     16  O    Isotropic =    12.2739   Anisotropy =   412.4657

     17  N    Isotropic =   137.2697   Anisotropy =    96.5218

     18  H    Isotropic =    26.1291   Anisotropy =    10.8893

     19  C    Isotropic =   116.7176   Anisotropy =    33.5151

     20  C    Isotropic =    -0.5520   Anisotropy =   117.2020

     21  N    Isotropic =   111.5581   Anisotropy =    92.2590

     22  H    Isotropic =    26.2605   Anisotropy =     5.0275

     23  O    Isotropic =   -79.2622   Anisotropy =   572.0478

     24  H    Isotropic =    27.1549   Anisotropy =     4.2073

     25  C    Isotropic =   139.4566   Anisotropy =    18.3979

     26  H    Isotropic =    28.5562   Anisotropy =     6.4915

     27  H    Isotropic =    29.1013   Anisotropy =     5.7697

     28  C    Isotropic =    35.5134   Anisotropy =   199.8612

     29  C    Isotropic =    24.8856   Anisotropy =   186.5044

     30  C    Isotropic =    35.8803   Anisotropy =   177.4091

     31  H    Isotropic =    23.6337   Anisotropy =     6.3556

     32  H    Isotropic =    23.0514   Anisotropy =     7.0904

     33  C    Isotropic =    47.1041   Anisotropy =   169.8469

     34  H    Isotropic =    25.2439   Anisotropy =     5.3456

     35  C    Isotropic =    53.6726   Anisotropy =   175.3363

     36  H    Isotropic =    25.0990   Anisotropy =     7.8535

     37  C    Isotropic =     8.2653   Anisotropy =   135.8305

     38  O    Isotropic =   168.4890   Anisotropy =   129.2379

     39  C    Isotropic =     3.3312   Anisotropy =   160.2924

     40  C    Isotropic =    39.1164   Anisotropy =   182.3365

     41  C    Isotropic =    47.8928   Anisotropy =   188.5380

     42  H    Isotropic =    23.7207   Anisotropy =     4.6518

     43  H    Isotropic =    23.3382   Anisotropy =     5.1948

     44  C    Isotropic =    31.2320   Anisotropy =   186.7751

     45  H    Isotropic =    23.9193   Anisotropy =     7.6258

     46  C    Isotropic =    39.5680   Anisotropy =   193.1380

     47  H    Isotropic =    23.5622   Anisotropy =     3.4486

     48  C    Isotropic =    44.6456   Anisotropy =   166.0966

     49  C    Isotropic =   -27.8663   Anisotropy =   168.8415

     50  O    Isotropic =  -288.3692   Anisotropy =   894.1086

     51  C    Isotropic =   123.0893   Anisotropy =    35.3643

     52  H    Isotropic =    26.9803   Anisotropy =     5.8114

     53  H    Isotropic =    26.9422   Anisotropy =     4.4851

     54  N    Isotropic =   124.3426   Anisotropy =    85.1930

     55  H    Isotropic =    27.4493   Anisotropy =     7.0117

     56  C    Isotropic =    16.3482   Anisotropy =   112.4882

     57  O    Isotropic =   -30.6034   Anisotropy =   511.5028

     58  C    Isotropic =   112.6297   Anisotropy =    21.7133

     59  H    Isotropic =    26.3324   Anisotropy =     4.6365

     60  C    Isotropic =    31.6649   Anisotropy =   194.2592

     61  C    Isotropic =    26.3818   Anisotropy =   179.2390

     62  H    Isotropic =    23.3886   Anisotropy =    10.1136

     63  C    Isotropic =    43.8022   Anisotropy =   188.9217

     64  H    Isotropic =    23.7330   Anisotropy =     6.5480

     65  C    Isotropic =    39.9059   Anisotropy =   196.8957

     66  H    Isotropic =    24.0992   Anisotropy =     5.3440

     67  C    Isotropic =    46.2832   Anisotropy =   189.5318

     68  H    Isotropic =    23.4849   Anisotropy =     7.5718

     69  C    Isotropic =    49.8145   Anisotropy =   184.3467

     70  H    Isotropic =    24.8596   Anisotropy =     5.5425

     71  C    Isotropic =   142.2677   Anisotropy =    56.3880

     72  H    Isotropic =    29.1175   Anisotropy =    10.9076

     73  H    Isotropic =    28.9712   Anisotropy =     5.6035

     74  H    Isotropic =    29.2141   Anisotropy =     4.8344

     75  S    Isotropic =   173.3686   Anisotropy =   410.6325

     76  C    Isotropic =   146.4952   Anisotropy =    50.5831

     77  H    Isotropic =    29.1961   Anisotropy =     5.5740

     78  H    Isotropic =    29.4437   Anisotropy =    10.4571

     79  H    Isotropic =    29.4788   Anisotropy =     7.0283

     80  O    Isotropic =   242.0246   Anisotropy =   176.8592

 The electronic state is 1-A.
 Alpha  occ. eigenvalues --  -88.95815 -19.16975 -19.16624 -19.13745 -19.11092
 Alpha  occ. eigenvalues --  -19.10654 -19.10423 -19.10340 -14.36444 -14.35065
 Alpha  occ. eigenvalues --  -14.34057 -10.33280 -10.29324 -10.29156 -10.28718
 Alpha  occ. eigenvalues --  -10.25808 -10.25353 -10.25156 -10.23989 -10.23855
 Alpha  occ. eigenvalues --  -10.23622 -10.20444 -10.20422 -10.20372 -10.20327
 Alpha  occ. eigenvalues --  -10.20297 -10.20264 -10.20165 -10.20077 -10.20043
 Alpha  occ. eigenvalues --  -10.19689 -10.19640 -10.19566 -10.19111 -10.19001
 Alpha  occ. eigenvalues --  -10.18761 -10.18669 -10.18651 -10.18619 -10.18495
 Alpha  occ. eigenvalues --  -10.16764 -10.16487 -10.16114  -8.03427  -5.99713
 Alpha  occ. eigenvalues --   -5.99612  -5.98988  -1.11188  -1.10544  -1.07327
 Alpha  occ. eigenvalues --   -1.06567  -1.05714  -1.02077  -1.02047  -0.95109
 Alpha  occ. eigenvalues --   -0.93894  -0.92470  -0.88316  -0.86544  -0.85855
 Alpha  occ. eigenvalues --   -0.81723  -0.81434  -0.79899  -0.79004  -0.77864
 Alpha  occ. eigenvalues --   -0.77113  -0.76226  -0.75905  -0.75279  -0.74073
 Alpha  occ. eigenvalues --   -0.73486  -0.70654  -0.69900  -0.68833  -0.68420
 Alpha  occ. eigenvalues --   -0.65019  -0.64498  -0.63578  -0.62466  -0.61951
 Alpha  occ. eigenvalues --   -0.61910  -0.61116  -0.60928  -0.59929  -0.58559
 Alpha  occ. eigenvalues --   -0.57965  -0.57822  -0.56543  -0.55544  -0.52875
 Alpha  occ. eigenvalues --   -0.52572  -0.51704  -0.51667  -0.50968  -0.50379
 Alpha  occ. eigenvalues --   -0.49852  -0.48907  -0.48717  -0.48080  -0.47964
 Alpha  occ. eigenvalues --   -0.47692  -0.47510  -0.47286  -0.47076  -0.46924
 Alpha  occ. eigenvalues --   -0.46572  -0.46362  -0.45975  -0.45435  -0.45065
 Alpha  occ. eigenvalues --   -0.44801  -0.44499  -0.44425  -0.44235  -0.43691
 Alpha  occ. eigenvalues --   -0.43529  -0.43230  -0.42889  -0.42718  -0.42291
 Alpha  occ. eigenvalues --   -0.42220  -0.41399  -0.41086  -0.40820  -0.40339
 Alpha  occ. eigenvalues --   -0.40187  -0.40028  -0.39563  -0.39425  -0.38828
 Alpha  occ. eigenvalues --   -0.38516  -0.38259  -0.37722  -0.37047  -0.36832
 Alpha  occ. eigenvalues --   -0.36781  -0.36697  -0.36270  -0.35881  -0.35564
 Alpha  occ. eigenvalues --   -0.35401  -0.34793  -0.34563  -0.32279  -0.31989
 Alpha  occ. eigenvalues --   -0.30642  -0.30503  -0.30297  -0.29517  -0.29222
 Alpha  occ. eigenvalues --   -0.28187  -0.27891  -0.27422  -0.27226  -0.26859
 Alpha  occ. eigenvalues --   -0.26696  -0.26412  -0.25698  -0.25217  -0.25047
 Alpha  occ. eigenvalues --   -0.23953
 Alpha virt. eigenvalues --   -0.08309  -0.04912  -0.04089  -0.03745  -0.03580
 Alpha virt. eigenvalues --   -0.02731  -0.01437  -0.01306  -0.01135  -0.00641
 Alpha virt. eigenvalues --   -0.00362  -0.00106   0.00275   0.00549   0.00785

 Mulliken charges:
               1
     1  C   -0.618436
     2  H    0.164456
     3  H    0.158594
     4  H    0.176139
     5  C    0.596363
     6  C   -0.569721
     7  H    0.142034
     8  H    0.146949
     9  H    0.149948
    10  C   -0.584210
    11  H    0.168846
    12  H    0.157014
    13  H    0.174028
    14  O   -0.218147
    15  C    0.729982
    16  O   -0.449701
    17  N   -0.569756
    18  H    0.146354
    19  C   -0.177203
    20  C    0.432007
    21  N   -0.334671
    22  H    0.117937
    23  O   -0.469200
    24  H    0.193461
    25  C   -0.542904
    26  H    0.182305
    27  H    0.206458
    28  C    0.455556
    29  C   -0.228701
    30  C   -0.287625
    31  H    0.181544
    32  H    0.202740
    33  C   -0.306111
    34  H    0.189883
    35  C    0.001196
    36  H    0.217372
    37  C   -0.162109
    38  O   -0.345345
    39  C   -0.008426
    40  C   -0.297289
    41  C   -0.034399
    42  H    0.206233
    43  H    0.213336
    44  C    0.085591
    45  H    0.241343
    46  C   -0.305815
    47  H    0.188303
    48  C    0.387281
    49  C   -0.145786
    50  O   -0.399666
    51  C   -0.325360
    52  H    0.239817
    53  H    0.206749
    54  N   -0.281837
    55  H    0.260226
    56  C   -0.049122
    57  O   -0.469768
    58  C    0.182717
    59  H    0.182500
    60  C    0.700963
    61  C   -0.139230
    62  H    0.179336
    63  C   -0.331158
    64  H    0.162709
    65  C   -0.154348
    66  H    0.159224
    67  C   -0.386377
    68  H    0.185809
    69  C   -0.216910
    70  H    0.135685
    71  C   -0.379275
    72  H    0.206321
    73  H    0.201990
    74  H    0.119273
    75  S    0.181431
    76  C   -0.415206
    77  H    0.205960
    78  H    0.218952
    79  H    0.192361
    80  O   -0.331468
 Sum of Mulliken charges =  -0.00000

 Dipole moment (field-independent basis, Debye):
    X=             -4.1386    Y=             -9.8272    Z=             -0.4507  Tot=             10.6727
 Quadrupole moment (field-independent basis, Debye-Ang):
   XX=           -273.0121   YY=           -282.4656   ZZ=           -255.0285
   XY=             30.8035   XZ=             32.8981   YZ=             14.7011

 Normal termination of Gaussian 16 at Tue Aug 10 21:04:41 2021.
