 Gaussian 16, Revision C.01,
 Gaussian 16:  ES64L-G16RevC.01  3-Jul-2019

 ----------------------------------------------------------------------
 #P B3LYP/6-311++G(2d,p) scf=tight Int=Ultrafine scrf(Solvent=DiMethylS
 ulfoxide) NMR
 ----------------------------------------------------------------------

 --
 8e
 --
 Symbolic Z-matrix:
 Charge =  0 Multiplicity = 1

                         Standard orientation:
 ---------------------------------------------------------------------
 Center     Atomic      Atomic             Coordinates (Angstroms)
 Number     Number       Type             X           Y           Z
 ---------------------------------------------------------------------
      1          6           0       -4.468174    4.270697   -0.738272
      2          1           0       -4.622153    5.125145   -1.408250
      3          1           0       -5.334330    3.601027   -0.793064
      4          1           0       -4.358183    4.660601    0.281298
      5          6           0       -3.204704    3.578901   -1.183469
      6          6           0       -3.308892    3.304111   -2.646590
      7          1           0       -3.265882    4.138009   -3.357536
      8          1           0       -2.498567    2.644278   -2.978034
      9          1           0       -4.243410    2.813093   -2.943943
     10          6           0       -1.869267    4.279376   -0.767150
     11          1           0       -1.700125    4.211743    0.313842
     12          1           0       -1.059240    3.769075   -1.301536
     13          1           0       -1.857302    5.313972   -1.130510
     14          8           0       -3.111646    2.215841   -0.624386
     15          6           0       -3.107011    2.050200    0.733239
     16          8           0       -3.333755    2.837176    1.646862
     17          7           0       -2.774856    0.808622    1.021836
     18          1           0       -2.868450    0.142884    0.263605
     19          6           0       -1.962496    0.371941    2.153215
     20          6           0       -0.479548    0.797315    2.187638
     21          7           0        0.119311    1.348481    1.053945
     22          1           0       -0.540955    1.351565    0.285244
     23          8           0        0.118819    0.755398    3.237853
     24          1           0       -2.360501    0.754423    3.100321
     25          6           0       -2.134594   -1.064254    2.366094
     26          1           0       -3.151541   -1.436507    2.194108
     27          1           0       -2.049972   -1.314329    3.430373
     28          6           0       -1.096703   -1.835697    1.501591
     29          6           0       -1.410297   -2.190769    0.186296
     30          6           0       -0.416627   -2.828329   -0.593937
     31          1           0       -0.659728   -3.012348   -1.636246
     32          1           0       -2.425468   -1.998651   -0.148349
     33          6           0        0.173418   -2.200753    2.049791
     34          1           0        0.403238   -1.875777    3.060815
     35          6           0        1.138937   -2.929637    1.243598
     36          1           0        2.146666   -3.133415    1.593362
     37          6           0        0.868264   -3.162561   -0.108608
     38          8           0        1.733968   -3.711960   -1.009373
     39          6           0        2.513533   -2.755024   -1.641798
     40          6           0        3.864014   -2.748807   -1.325763
     41          6           0        4.642688   -1.772527   -1.741323
     42          1           0        5.701436   -1.832437   -1.507997
     43          1           0        4.344066   -3.561853   -0.788998
     44          6           0        1.990662   -1.692601   -2.362995
     45          1           0        0.957922   -1.793098   -2.683164
     46          6           0        2.725167   -0.592590   -2.587672
     47          1           0        2.250703    0.308352   -2.966851
     48          6           0        4.057208   -0.574504   -2.232799
     49          6           0        4.777763    0.790881   -2.025262
     50          8           0        5.941793    0.841201   -1.733796
     51          6           0        3.993126    2.118228   -2.075874
     52          1           0        4.669474    2.980080   -2.121061
     53          1           0        3.279807    2.128342   -2.909582
     54          7           0        3.188412    2.402341   -0.827068
     55          1           0        3.716863    2.410160    0.037402
     56          6           0        1.868425    2.045938   -0.636665
     57          8           0        1.078702    1.892324   -1.511251
     58          6           0        1.508402    1.858983    0.858343
     59          1           0        1.559592    2.883984    1.246990
     60          6           0        2.607854    1.109234    1.516963
     61          6           0        3.286801    1.553020    2.624313
     62          1           0        2.952471    2.481566    3.076961
     63          6           0        4.365450    0.848852    3.166578
     64          1           0        4.858142    1.245577    4.050304
     65          6           0        4.770990   -0.453110    2.619843
     66          1           0        5.582915   -1.061364    3.006365
     67          6           0        4.061307   -0.939365    1.531274
     68          1           0        4.345560   -1.851875    1.013564
     69          6           0        3.024726   -0.126761    1.026027
     70          1           0        2.407096   -0.547603    0.237593
     71          6           0       -4.777654   -3.880333   -0.095915
     72          1           0       -5.504469   -4.687800    0.057114
     73          1           0       -4.018779   -3.839689    0.695398
     74          1           0       -4.198033   -4.099737   -1.001251
     75         16           0       -5.542629   -2.226674   -0.202235
     76          6           0       -6.409661   -2.735926   -1.686536
     77          1           0       -5.751221   -3.069493   -2.497468
     78          1           0       -7.193553   -2.029618   -1.985485
     79          1           0       -6.942960   -3.636343   -1.359665
     80          8           0       -4.575103   -1.259484   -0.732903
 ---------------------------------------------------------------------

 SCF Done:  E(RB3LYP) =  -2331.24035091     A.U. after   15 cycles

      1  C    Isotropic =   154.7812   Anisotropy =    38.2298

      2  H    Isotropic =    30.5836   Anisotropy =     9.4191

      3  H    Isotropic =    30.3164   Anisotropy =     7.0021

      4  H    Isotropic =    29.1902   Anisotropy =     6.7967

      5  C    Isotropic =    97.7684   Anisotropy =    77.3692

      6  C    Isotropic =   155.8636   Anisotropy =    48.5959

      7  H    Isotropic =    30.4567   Anisotropy =     9.4721

      8  H    Isotropic =    30.6485   Anisotropy =     6.9904

      9  H    Isotropic =    30.4439   Anisotropy =     7.4432

     10  C    Isotropic =   154.5283   Anisotropy =    42.2994

     11  H    Isotropic =    29.6948   Anisotropy =     3.6575

     12  H    Isotropic =    30.5130   Anisotropy =     8.1028

     13  H    Isotropic =    30.7030   Anisotropy =     9.2740

     14  O    Isotropic =    98.0131   Anisotropy =   102.5887

     15  C    Isotropic =    18.7911   Anisotropy =    72.7203

     16  O    Isotropic =    17.2396   Anisotropy =   426.9247

     17  N    Isotropic =   148.8877   Anisotropy =    98.9521

     18  H    Isotropic =    26.5197   Anisotropy =     8.6389

     19  C    Isotropic =   123.5063   Anisotropy =    49.0330

     20  C    Isotropic =     5.2637   Anisotropy =   112.0118

     21  N    Isotropic =   118.1067   Anisotropy =    94.3817

     22  H    Isotropic =    26.4808   Anisotropy =     7.1041

     23  O    Isotropic =   -68.5959   Anisotropy =   591.6643

     24  H    Isotropic =    26.9082   Anisotropy =     5.3630

     25  C    Isotropic =   146.3165   Anisotropy =    29.3174

     26  H    Isotropic =    28.8530   Anisotropy =     6.6457

     27  H    Isotropic =    28.3779   Anisotropy =     7.4132

     28  C    Isotropic =    30.0759   Anisotropy =   203.8175

     29  C    Isotropic =    42.1751   Anisotropy =   174.9187

     30  C    Isotropic =    46.0512   Anisotropy =   163.5827

     31  H    Isotropic =    23.9829   Anisotropy =     8.1108

     32  H    Isotropic =    23.1814   Anisotropy =     4.0577

     33  C    Isotropic =    36.7031   Anisotropy =   177.3613

     34  H    Isotropic =    24.9246   Anisotropy =     6.5750

     35  C    Isotropic =    48.3525   Anisotropy =   173.3145

     36  H    Isotropic =    24.7125   Anisotropy =     2.9917

     37  C    Isotropic =    13.8641   Anisotropy =   138.0266

     38  O    Isotropic =   175.4855   Anisotropy =    93.5791

     39  C    Isotropic =    11.1257   Anisotropy =   138.4698

     40  C    Isotropic =    55.6383   Anisotropy =   154.7385

     41  C    Isotropic =    49.6744   Anisotropy =   193.9474

     42  H    Isotropic =    24.0197   Anisotropy =     3.9381

     43  H    Isotropic =    23.8979   Anisotropy =     4.9973

     44  C    Isotropic =    62.0021   Anisotropy =   167.1833

     45  H    Isotropic =    24.3774   Anisotropy =     5.2423

     46  C    Isotropic =    49.8820   Anisotropy =   189.2285

     47  H    Isotropic =    23.5152   Anisotropy =     3.3793

     48  C    Isotropic =    39.8764   Anisotropy =   171.1806

     49  C    Isotropic =   -18.3124   Anisotropy =   147.9488

     50  O    Isotropic =  -253.2119   Anisotropy =   889.7956

     51  C    Isotropic =   130.6327   Anisotropy =    31.3590

     52  H    Isotropic =    28.4957   Anisotropy =     9.8555

     53  H    Isotropic =    26.5356   Anisotropy =     3.1499

     54  N    Isotropic =   119.2752   Anisotropy =    69.9205

     55  H    Isotropic =    28.1738   Anisotropy =     9.8040

     56  C    Isotropic =     8.4136   Anisotropy =   113.1316

     57  O    Isotropic =   -60.1688   Anisotropy =   645.9580

     58  C    Isotropic =   119.4838   Anisotropy =    19.2053

     59  H    Isotropic =    26.9682   Anisotropy =     6.1830

     60  C    Isotropic =    42.0553   Anisotropy =   193.2981

     61  C    Isotropic =    45.0646   Anisotropy =   172.7456

     62  H    Isotropic =    24.3844   Anisotropy =     7.9369

     63  C    Isotropic =    45.7302   Anisotropy =   183.3509

     64  H    Isotropic =    24.2436   Anisotropy =     4.0898

     65  C    Isotropic =    40.5386   Anisotropy =   198.4631

     66  H    Isotropic =    23.8999   Anisotropy =     6.1827

     67  C    Isotropic =    42.4650   Anisotropy =   187.3553

     68  H    Isotropic =    23.9705   Anisotropy =    10.8330

     69  C    Isotropic =    43.5415   Anisotropy =   200.2311

     70  H    Isotropic =    27.9107   Anisotropy =     8.9319

     71  C    Isotropic =   133.5948   Anisotropy =    65.6900

     72  H    Isotropic =    29.3095   Anisotropy =     8.5069

     73  H    Isotropic =    29.2073   Anisotropy =     5.5605

     74  H    Isotropic =    29.2587   Anisotropy =     2.8935

     75  S    Isotropic =   169.3422   Anisotropy =   492.8168

     76  C    Isotropic =   135.8851   Anisotropy =    69.2165

     77  H    Isotropic =    28.8554   Anisotropy =     3.6777

     78  H    Isotropic =    28.8117   Anisotropy =     8.1233

     79  H    Isotropic =    29.7834   Anisotropy =     8.7797

     80  O    Isotropic =   276.2247   Anisotropy =   207.2502

 The electronic state is 1-A.
 Alpha  occ. eigenvalues --  -88.95751 -19.17422 -19.16654 -19.13509 -19.12274
 Alpha  occ. eigenvalues --  -19.10508 -19.10485 -19.09983 -14.35468 -14.35295
 Alpha  occ. eigenvalues --  -14.33903 -10.32576 -10.29878 -10.29130 -10.28612
 Alpha  occ. eigenvalues --  -10.25523 -10.24859 -10.24670 -10.24665 -10.23474
 Alpha  occ. eigenvalues --  -10.23430 -10.20253 -10.19536 -10.19521 -10.19420
 Alpha  occ. eigenvalues --  -10.19381 -10.19295 -10.19213 -10.19172 -10.19129
 Alpha  occ. eigenvalues --  -10.19106 -10.19049 -10.18720 -10.18692 -10.18607
 Alpha  occ. eigenvalues --  -10.18430 -10.18402 -10.18397 -10.18232 -10.18157
 Alpha  occ. eigenvalues --  -10.16523 -10.16078 -10.15990  -8.03274  -5.99571
 Alpha  occ. eigenvalues --   -5.99427  -5.98894  -1.10873  -1.10199  -1.08700
 Alpha  occ. eigenvalues --   -1.07597  -1.06291  -1.05004  -1.02734  -0.95018
 Alpha  occ. eigenvalues --   -0.94180  -0.92588  -0.89537  -0.86931  -0.86250
 Alpha  occ. eigenvalues --   -0.82697  -0.80367  -0.80277  -0.80171  -0.78966
 Alpha  occ. eigenvalues --   -0.77762  -0.75857  -0.75311  -0.74939  -0.73859
 Alpha  occ. eigenvalues --   -0.71444  -0.71359  -0.70041  -0.69834  -0.67649
 Alpha  occ. eigenvalues --   -0.64867  -0.64177  -0.63584  -0.62441  -0.62047
 Alpha  occ. eigenvalues --   -0.61283  -0.61111  -0.60727  -0.59271  -0.58635
 Alpha  occ. eigenvalues --   -0.57888  -0.57215  -0.56065  -0.55528  -0.53281
 Alpha  occ. eigenvalues --   -0.52907  -0.51778  -0.51691  -0.50984  -0.50477
 Alpha  occ. eigenvalues --   -0.49653  -0.48962  -0.48679  -0.48321  -0.47737
 Alpha  occ. eigenvalues --   -0.47656  -0.47517  -0.47391  -0.47021  -0.46854
 Alpha  occ. eigenvalues --   -0.46438  -0.46363  -0.45827  -0.45578  -0.45509
 Alpha  occ. eigenvalues --   -0.45306  -0.44958  -0.44620  -0.44438  -0.44176
 Alpha  occ. eigenvalues --   -0.43309  -0.43203  -0.42950  -0.42587  -0.42416
 Alpha  occ. eigenvalues --   -0.42019  -0.41845  -0.41613  -0.41093  -0.41019
 Alpha  occ. eigenvalues --   -0.40229  -0.39761  -0.39479  -0.38936  -0.38747
 Alpha  occ. eigenvalues --   -0.38517  -0.37996  -0.37872  -0.37727  -0.37200
 Alpha  occ. eigenvalues --   -0.37014  -0.36548  -0.36384  -0.35870  -0.35592
 Alpha  occ. eigenvalues --   -0.35327  -0.34878  -0.34371  -0.33987  -0.31536
 Alpha  occ. eigenvalues --   -0.30978  -0.30801  -0.30084  -0.29518  -0.29229
 Alpha  occ. eigenvalues --   -0.28780  -0.28686  -0.27888  -0.27188  -0.26878
 Alpha  occ. eigenvalues --   -0.26355  -0.26025  -0.25793  -0.25492  -0.25293
 Alpha  occ. eigenvalues --   -0.24878
 Alpha virt. eigenvalues --   -0.08122  -0.04178  -0.03837  -0.02884  -0.02762
 Alpha virt. eigenvalues --   -0.01997  -0.01713  -0.01102  -0.00591  -0.00510
 Alpha virt. eigenvalues --   -0.00336  -0.00016   0.00042   0.00351   0.00693

 Mulliken charges:
               1
     1  C   -0.636726
     2  H    0.165587
     3  H    0.154398
     4  H    0.162926
     5  C    0.794278
     6  C   -0.511338
     7  H    0.164431
     8  H    0.141027
     9  H    0.166732
    10  C   -0.884725
    11  H    0.233064
    12  H    0.199000
    13  H    0.159725
    14  O   -0.263414
    15  C    0.376187
    16  O   -0.442682
    17  N   -0.515768
    18  H    0.330157
    19  C   -0.102385
    20  C    0.283512
    21  N   -0.153529
    22  H    0.200346
    23  O   -0.449890
    24  H    0.195418
    25  C   -0.770341
    26  H    0.170896
    27  H    0.207590
    28  C    0.754011
    29  C   -0.221538
    30  C   -0.216865
    31  H    0.182744
    32  H    0.238213
    33  C   -0.379190
    34  H    0.231759
    35  C   -0.215787
    36  H    0.174776
    37  C   -0.240004
    38  O   -0.406238
    39  C    0.151675
    40  C   -0.078810
    41  C   -0.086345
    42  H    0.197634
    43  H    0.191256
    44  C   -0.257306
    45  H    0.165535
    46  C   -0.573227
    47  H    0.229202
    48  C    0.453443
    49  C    0.121916
    50  O   -0.412621
    51  C   -0.272995
    52  H    0.210576
    53  H    0.178432
    54  N    0.007170
    55  H    0.295979
    56  C   -0.478271
    57  O   -0.412576
    58  C    0.113294
    59  H    0.214912
    60  C    0.270554
    61  C   -0.059115
    62  H    0.160394
    63  C   -0.486930
    64  H    0.168859
    65  C   -0.265204
    66  H    0.174570
    67  C   -0.167519
    68  H    0.230291
    69  C    0.186523
    70  H    0.450322
    71  C   -0.518612
    72  H    0.176620
    73  H    0.190597
    74  H    0.212218
    75  S    0.455658
    76  C   -0.427513
    77  H    0.187647
    78  H    0.161952
    79  H    0.166558
    80  O   -0.503099
 Sum of Mulliken charges =  -0.00000

 Dipole moment (field-independent basis, Debye):
    X=             -3.4183    Y=             -5.5558    Z=             -4.2686  Tot=              7.7957
 Quadrupole moment (field-independent basis, Debye-Ang):
   XX=           -237.4551   YY=           -239.3405   ZZ=           -268.7178
   XY=             33.9974   XZ=             22.7119   YZ=            -10.7599

 Normal termination of Gaussian 16 at Tue Aug 10 21:22:03 2021.
