 Gaussian 16, Revision C.01,
 Gaussian 16:  ES64L-G16RevC.01  3-Jul-2019

 ----------------------------------------------------------------------
 #P B3LYP/6-311++G(2d,p) scf=tight Int=Ultrafine scrf(Solvent=DiMethylS
 ulfoxide) NMR
 ----------------------------------------------------------------------

 --
 8e
 --
 Symbolic Z-matrix:
 Charge =  0 Multiplicity = 1

                         Standard orientation:
 ---------------------------------------------------------------------
 Center     Atomic      Atomic             Coordinates (Angstroms)
 Number     Number       Type             X           Y           Z
 ---------------------------------------------------------------------
      1          6           0        5.246932   -2.163174    0.441397
      2          1           0        6.286614   -2.244390    0.777563
      3          1           0        4.597892   -2.394656    1.294402
      4          1           0        5.097123   -2.903951   -0.353343
      5          6           0        4.932400   -0.768626   -0.087894
      6          6           0        5.162933    0.218743    1.099034
      7          1           0        6.169885    0.013277    1.482367
      8          1           0        5.108146    1.277667    0.820024
      9          1           0        4.358158    0.048601    1.825094
     10          6           0        5.858136   -0.403525   -1.199355
     11          1           0        6.898966   -0.372393   -0.853633
     12          1           0        5.802169   -1.193466   -1.958795
     13          1           0        5.604096    0.577020   -1.620066
     14          8           0        3.631185   -0.528195   -0.617614
     15          6           0        3.002067   -1.494013   -1.343237
     16          8           0        3.471150   -2.395696   -1.946811
     17          7           0        1.673621   -1.291257   -1.163728
     18          1           0        1.334698   -0.487817   -0.648129
     19          6           0        0.706200   -2.254987   -1.489339
     20          6           0       -0.758330   -1.754808   -1.855319
     21          7           0       -1.032262   -0.384049   -1.869746
     22          1           0       -0.251657    0.260649   -1.897111
     23          8           0       -1.545109   -2.659046   -2.157980
     24          1           0        0.994199   -2.737177   -2.431898
     25          6           0        0.699847   -3.308262   -0.301646
     26          1           0        1.665956   -3.826182   -0.345553
     27          1           0       -0.094032   -4.028521   -0.534055
     28          6           0        0.458341   -2.839350    1.133782
     29          6           0        1.428400   -2.085793    1.777812
     30          6           0        1.021967   -1.280676    2.904400
     31          1           0        1.666840   -0.514948    3.325226
     32          1           0        2.378223   -1.906746    1.281353
     33          6           0       -0.822259   -2.975595    1.722805
     34          1           0       -1.571767   -3.505143    1.141180
     35          6           0       -1.176652   -2.303251    2.954484
     36          1           0       -2.170430   -2.380903    3.387083
     37          6           0       -0.249583   -1.376753    3.465393
     38          8           0       -0.659595   -0.316561    4.320218
     39          6           0       -0.896359    0.816005    3.593196
     40          6           0       -2.083983    0.985422    2.942747
     41          6           0       -2.269536    1.983887    1.984998
     42          1           0       -3.211157    2.113410    1.460649
     43          1           0       -2.872789    0.300799    3.241162
     44          6           0        0.149729    1.722590    3.419513
     45          1           0        1.124259    1.482809    3.833003
     46          6           0        0.017287    2.759128    2.434217
     47          1           0        0.897544    3.336770    2.169895
     48          6           0       -1.172260    2.799044    1.694346
     49          6           0       -1.226337    3.736351    0.518576
     50          8           0       -0.561769    4.773801    0.503663
     51          6           0       -2.190508    3.436102   -0.644224
     52          1           0       -3.229297    3.662186   -0.371456
     53          1           0       -1.981526    4.017445   -1.550622
     54          7           0       -2.044437    2.004715   -0.992379
     55          1           0       -1.354328    1.441417   -0.512049
     56          6           0       -2.773091    1.478580   -1.968167
     57          8           0       -3.534666    2.121858   -2.674069
     58          6           0       -2.480074    0.014535   -2.129250
     59          1           0       -2.694129   -0.124470   -3.195742
     60          6           0       -3.470142   -0.809942   -1.394759
     61          6           0       -4.344017   -1.617398   -2.141189
     62          1           0       -4.339616   -1.511238   -3.222334
     63          6           0       -5.243404   -2.488479   -1.458395
     64          1           0       -5.887270   -3.115471   -2.068127
     65          6           0       -5.225384   -2.571441   -0.059027
     66          1           0       -5.868140   -3.262259    0.477820
     67          6           0       -4.312567   -1.848339    0.653450
     68          1           0       -4.279829   -1.980084    1.730688
     69          6           0       -3.440191   -0.945586    0.043741
     70          1           0       -2.746522   -0.445126    0.712526
     71          6           0        2.479174    2.091624   -2.792635
     72          1           0        1.796216    1.648321   -3.527853
     73          1           0        3.178143    1.301941   -2.492084
     74          1           0        3.056840    2.832291   -3.359617
     75         16           0        1.459648    2.803323   -1.472751
     76          6           0        2.810054    2.922858   -0.319064
     77          1           0        3.318191    1.956993   -0.420845
     78          1           0        2.547435    3.122662    0.727395
     79          1           0        3.424824    3.799963   -0.557254
     80          8           0        0.783867    1.570397   -0.880435
 ---------------------------------------------------------------------

 SCF Done:  E(RB3LYP) =  -2331.26118109     A.U. after   15 cycles

      1  C    Isotropic =   156.4923   Anisotropy =    37.6521

      2  H    Isotropic =    30.4768   Anisotropy =     9.5160

      3  H    Isotropic =    30.3877   Anisotropy =     5.3479

      4  H    Isotropic =    29.1986   Anisotropy =     5.6355

      5  C    Isotropic =   105.8333   Anisotropy =    69.1294

      6  C    Isotropic =   146.0906   Anisotropy =    48.0609

      7  H    Isotropic =    30.3590   Anisotropy =     8.2886

      8  H    Isotropic =    30.1298   Anisotropy =     5.6593

      9  H    Isotropic =    29.9924   Anisotropy =     6.3927

     10  C    Isotropic =   150.7125   Anisotropy =    43.9466

     11  H    Isotropic =    30.5904   Anisotropy =     9.9581

     12  H    Isotropic =    29.5678   Anisotropy =     6.5891

     13  H    Isotropic =    30.2447   Anisotropy =     5.8272

     14  O    Isotropic =   139.1947   Anisotropy =    89.2848

     15  C    Isotropic =    31.0627   Anisotropy =    72.1458

     16  O    Isotropic =    50.8010   Anisotropy =   395.2725

     17  N    Isotropic =   146.9336   Anisotropy =    92.1299

     18  H    Isotropic =    26.5715   Anisotropy =     8.5559

     19  C    Isotropic =   119.7439   Anisotropy =    21.6283

     20  C    Isotropic =    -2.7924   Anisotropy =   118.7173

     21  N    Isotropic =    98.4516   Anisotropy =    91.7673

     22  H    Isotropic =    23.7166   Anisotropy =    10.1605

     23  O    Isotropic =  -106.0782   Anisotropy =   626.2925

     24  H    Isotropic =    27.7700   Anisotropy =     3.6163

     25  C    Isotropic =   140.3696   Anisotropy =    16.6997

     26  H    Isotropic =    28.9209   Anisotropy =     6.1483

     27  H    Isotropic =    29.0566   Anisotropy =     5.8821

     28  C    Isotropic =    34.9708   Anisotropy =   199.5547

     29  C    Isotropic =    39.0406   Anisotropy =   180.9241

     30  C    Isotropic =    46.2402   Anisotropy =   168.8808

     31  H    Isotropic =    23.8798   Anisotropy =     8.2446

     32  H    Isotropic =    23.8929   Anisotropy =     3.4745

     33  C    Isotropic =    34.8794   Anisotropy =   170.7181

     34  H    Isotropic =    24.7808   Anisotropy =     5.4672

     35  C    Isotropic =    46.6606   Anisotropy =   173.4493

     36  H    Isotropic =    23.6726   Anisotropy =     4.5586

     37  C    Isotropic =     6.0141   Anisotropy =   132.3973

     38  O    Isotropic =   166.3166   Anisotropy =    94.7578

     39  C    Isotropic =    10.2643   Anisotropy =   144.9965

     40  C    Isotropic =    56.2863   Anisotropy =   162.9579

     41  C    Isotropic =    45.6057   Anisotropy =   189.0517

     42  H    Isotropic =    23.8232   Anisotropy =     5.7594

     43  H    Isotropic =    24.2721   Anisotropy =     4.4172

     44  C    Isotropic =    41.5825   Anisotropy =   173.6297

     45  H    Isotropic =    23.4619   Anisotropy =     6.0233

     46  C    Isotropic =    38.2178   Anisotropy =   199.7348

     47  H    Isotropic =    23.1692   Anisotropy =     4.9274

     48  C    Isotropic =    39.7975   Anisotropy =   170.0565

     49  C    Isotropic =   -32.0653   Anisotropy =   176.3910

     50  O    Isotropic =  -299.1323   Anisotropy =   942.9338

     51  C    Isotropic =   127.6207   Anisotropy =    23.1463

     52  H    Isotropic =    27.2546   Anisotropy =     5.2485

     53  H    Isotropic =    27.6287   Anisotropy =     6.7319

     54  N    Isotropic =   113.3297   Anisotropy =   113.8440

     55  H    Isotropic =    25.3377   Anisotropy =     4.6417

     56  C    Isotropic =    14.4015   Anisotropy =   120.0824

     57  O    Isotropic =    -8.3523   Anisotropy =   511.1334

     58  C    Isotropic =   111.4652   Anisotropy =    10.5812

     59  H    Isotropic =    26.8946   Anisotropy =     6.7822

     60  C    Isotropic =    32.3846   Anisotropy =   192.4268

     61  C    Isotropic =    34.3515   Anisotropy =   172.6463

     62  H    Isotropic =    23.6694   Anisotropy =     8.6897

     63  C    Isotropic =    47.3458   Anisotropy =   186.2556

     64  H    Isotropic =    24.1896   Anisotropy =     4.6177

     65  C    Isotropic =    52.1971   Anisotropy =   182.0257

     66  H    Isotropic =    24.1225   Anisotropy =     5.3424

     67  C    Isotropic =    48.4438   Anisotropy =   187.4849

     68  H    Isotropic =    23.8641   Anisotropy =     7.9058

     69  C    Isotropic =    45.0450   Anisotropy =   193.6852

     70  H    Isotropic =    24.5415   Anisotropy =     5.4812

     71  C    Isotropic =   136.6212   Anisotropy =    69.1180

     72  H    Isotropic =    29.4152   Anisotropy =     5.9531

     73  H    Isotropic =    28.9568   Anisotropy =     5.8331

     74  H    Isotropic =    29.3645   Anisotropy =    10.3138

     75  S    Isotropic =   158.6462   Anisotropy =   386.2459

     76  C    Isotropic =   136.2676   Anisotropy =    61.5501

     77  H    Isotropic =    28.1131   Anisotropy =     8.4594

     78  H    Isotropic =    28.7920   Anisotropy =     4.7109

     79  H    Isotropic =    29.1880   Anisotropy =     8.8961

     80  O    Isotropic =   246.1414   Anisotropy =   204.7444

 The electronic state is 1-A.
 Alpha  occ. eigenvalues --  -88.96865 -19.16806 -19.16409 -19.13570 -19.11483
 Alpha  occ. eigenvalues --  -19.10860 -19.10743 -19.10337 -14.35544 -14.34954
 Alpha  occ. eigenvalues --  -14.33582 -10.32791 -10.29682 -10.28850 -10.28404
 Alpha  occ. eigenvalues --  -10.25031 -10.24825 -10.24213 -10.23526 -10.23300
 Alpha  occ. eigenvalues --  -10.23039 -10.20707 -10.20558 -10.20490 -10.20064
 Alpha  occ. eigenvalues --  -10.19924 -10.19893 -10.19822 -10.19702 -10.19488
 Alpha  occ. eigenvalues --  -10.19421 -10.19141 -10.19135 -10.19100 -10.18567
 Alpha  occ. eigenvalues --  -10.18558 -10.18468 -10.18424 -10.17846 -10.17631
 Alpha  occ. eigenvalues --  -10.16642 -10.16387 -10.15569  -8.04373  -6.00671
 Alpha  occ. eigenvalues --   -6.00521  -5.99990  -1.12655  -1.09058  -1.06397
 Alpha  occ. eigenvalues --   -1.05939  -1.04959  -1.04829  -1.03438  -0.95488
 Alpha  occ. eigenvalues --   -0.95054  -0.92241  -0.88253  -0.86415  -0.86324
 Alpha  occ. eigenvalues --   -0.82301  -0.80760  -0.80210  -0.79570  -0.77784
 Alpha  occ. eigenvalues --   -0.77302  -0.75594  -0.75262  -0.74879  -0.74122
 Alpha  occ. eigenvalues --   -0.72530  -0.70618  -0.69996  -0.69592  -0.67801
 Alpha  occ. eigenvalues --   -0.64994  -0.64883  -0.63617  -0.62892  -0.62651
 Alpha  occ. eigenvalues --   -0.61946  -0.61028  -0.60575  -0.60063  -0.58873
 Alpha  occ. eigenvalues --   -0.58020  -0.57321  -0.55759  -0.55030  -0.52865
 Alpha  occ. eigenvalues --   -0.52350  -0.52139  -0.51435  -0.50848  -0.49957
 Alpha  occ. eigenvalues --   -0.49681  -0.49109  -0.48759  -0.48643  -0.47931
 Alpha  occ. eigenvalues --   -0.47817  -0.47504  -0.47302  -0.46943  -0.46856
 Alpha  occ. eigenvalues --   -0.46676  -0.46369  -0.45870  -0.45671  -0.45210
 Alpha  occ. eigenvalues --   -0.44926  -0.44691  -0.44496  -0.44187  -0.43931
 Alpha  occ. eigenvalues --   -0.43407  -0.43050  -0.42745  -0.42576  -0.42128
 Alpha  occ. eigenvalues --   -0.41719  -0.41610  -0.41196  -0.40839  -0.40527
 Alpha  occ. eigenvalues --   -0.40162  -0.39755  -0.39243  -0.39101  -0.38997
 Alpha  occ. eigenvalues --   -0.38122  -0.37945  -0.37826  -0.37656  -0.37317
 Alpha  occ. eigenvalues --   -0.36983  -0.36757  -0.36242  -0.35769  -0.35745
 Alpha  occ. eigenvalues --   -0.35429  -0.35208  -0.34490  -0.34218  -0.31413
 Alpha  occ. eigenvalues --   -0.30822  -0.30169  -0.29462  -0.29051  -0.28851
 Alpha  occ. eigenvalues --   -0.28785  -0.28261  -0.27907  -0.27488  -0.27036
 Alpha  occ. eigenvalues --   -0.26979  -0.26273  -0.26036  -0.25712  -0.25324
 Alpha  occ. eigenvalues --   -0.24285
 Alpha virt. eigenvalues --   -0.08062  -0.05197  -0.03998  -0.03652  -0.02688
 Alpha virt. eigenvalues --   -0.02403  -0.01448  -0.01000  -0.00845  -0.00518
 Alpha virt. eigenvalues --   -0.00221   0.00007   0.00164   0.00920   0.01029

 Mulliken charges:
               1
     1  C   -0.595539
     2  H    0.182550
     3  H    0.175551
     4  H    0.185947
     5  C    0.564126
     6  C   -0.537826
     7  H    0.163868
     8  H    0.159458
     9  H    0.144550
    10  C   -0.536591
    11  H    0.160296
    12  H    0.163403
    13  H    0.132476
    14  O   -0.350519
    15  C    0.719772
    16  O   -0.379652
    17  N   -0.778777
    18  H    0.084625
    19  C    0.266557
    20  C    0.092416
    21  N   -0.455159
    22  H    0.371228
    23  O   -0.373636
    24  H    0.202055
    25  C   -0.951515
    26  H    0.201230
    27  H    0.191753
    28  C    0.743709
    29  C   -0.141776
    30  C    0.117886
    31  H    0.195925
    32  H    0.008438
    33  C   -0.220958
    34  H    0.194260
    35  C   -0.601347
    36  H    0.211215
    37  C    0.147937
    38  O   -0.460827
    39  C    0.177972
    40  C   -0.245720
    41  C   -0.508900
    42  H    0.207503
    43  H    0.215442
    44  C   -0.229332
    45  H    0.194698
    46  C    0.023810
    47  H    0.171671
    48  C    0.431290
    49  C   -0.103441
    50  O   -0.368329
    51  C   -0.290735
    52  H    0.224187
    53  H    0.212453
    54  N   -0.371175
    55  H    0.191769
    56  C    0.217611
    57  O   -0.543102
    58  C    0.155449
    59  H    0.175931
    60  C    0.524036
    61  C   -0.124624
    62  H    0.165004
    63  C   -0.358491
    64  H    0.156868
    65  C   -0.356116
    66  H    0.158843
    67  C   -0.214198
    68  H    0.167637
    69  C   -0.056700
    70  H    0.424047
    71  C   -0.615573
    72  H    0.201256
    73  H    0.179753
    74  H    0.225272
    75  S    0.546744
    76  C   -0.540036
    77  H    0.170522
    78  H    0.184490
    79  H    0.199915
    80  O   -0.374811
 Sum of Mulliken charges =  -0.00000

 Dipole moment (field-independent basis, Debye):
    X=              8.2934    Y=              3.3284    Z=              2.6501  Tot=              9.3211
 Quadrupole moment (field-independent basis, Debye-Ang):
   XX=           -246.2164   YY=           -288.6539   ZZ=           -275.9091
   XY=             28.6148   XZ=            -16.4260   YZ=            -11.1036

 Normal termination of Gaussian 16 at Tue Aug 10 21:28:24 2021.
