 Gaussian 16, Revision C.01,
 Gaussian 16:  ES64L-G16RevC.01  3-Jul-2019

 ----------------------------------------------------------------------
 #P B3LYP/6-311++G(2d,p) scf=tight Int=Ultrafine scrf(Solvent=DiMethylS
 ulfoxide) NMR
 ----------------------------------------------------------------------

 --
 8e
 --
 Symbolic Z-matrix:
 Charge =  0 Multiplicity = 1

                         Standard orientation:
 ---------------------------------------------------------------------
 Center     Atomic      Atomic             Coordinates (Angstroms)
 Number     Number       Type             X           Y           Z
 ---------------------------------------------------------------------
      1          6           0       -9.143620    4.896022   -0.936261
      2          1           0       -9.654862    4.894267    0.033868
      3          1           0       -9.651812    5.737534   -1.421134
      4          1           0       -9.208913    3.975750   -1.528831
      5          6           0       -7.668701    5.222936   -0.760548
      6          6           0       -7.090399    5.780633   -2.008116
      7          1           0       -6.070680    6.121725   -1.794036
      8          1           0       -7.114935    4.978227   -2.754989
      9          1           0       -7.578964    6.684297   -2.391350
     10          6           0       -7.531217    6.238209    0.409168
     11          1           0       -8.173706    7.121565    0.307830
     12          1           0       -7.899589    5.729239    1.308602
     13          1           0       -6.504198    6.582149    0.585121
     14          8           0       -7.067746    3.959055   -0.430564
     15          6           0       -7.323285    3.202933    0.639487
     16          8           0       -8.118076    3.483372    1.530267
     17          7           0       -6.562039    2.085810    0.690683
     18          1           0       -6.004339    1.839980   -0.118002
     19          6           0       -6.738868    1.085603    1.755477
     20          6           0       -5.515025    0.426243    2.317993
     21          7           0       -4.403825    0.433033    1.557652
     22          1           0       -4.402103    0.995715    0.715573
     23          8           0       -5.600113   -0.158665    3.396637
     24          1           0       -7.153861    1.527683    2.668980
     25          6           0       -7.676379   -0.052982    1.145101
     26          1           0       -8.689520    0.340898    1.000015
     27          1           0       -7.789607   -0.844730    1.894909
     28          6           0       -7.078717   -0.741754   -0.127684
     29          6           0       -6.896374   -0.040058   -1.326391
     30          6           0       -6.271416   -0.642779   -2.428918
     31          1           0       -6.285666   -0.116555   -3.379230
     32          1           0       -7.553098    0.816606   -1.449705
     33          6           0       -6.552382   -2.022740   -0.071324
     34          1           0       -6.720378   -2.596907    0.834797
     35          6           0       -6.017135   -2.730780   -1.203243
     36          1           0       -5.772036   -3.786121   -1.120692
     37          6           0       -5.725253   -1.912160   -2.323597
     38          8           0       -4.875000   -2.368251   -3.359036
     39          6           0       -3.587518   -2.263324   -3.038571
     40          6           0       -2.874222   -3.446817   -2.691331
     41          6           0       -1.589397   -3.300723   -2.151681
     42          1           0       -1.029987   -4.161187   -1.796588
     43          1           0       -3.268636   -4.422146   -2.959719
     44          6           0       -2.952506   -1.012452   -3.003995
     45          1           0       -3.439210   -0.086222   -3.294255
     46          6           0       -1.650303   -0.894998   -2.500559
     47          1           0       -1.238981    0.109674   -2.466553
     48          6           0       -1.062947   -2.035730   -1.955543
     49          6           0        0.107280   -1.919328   -0.931162
     50          8           0        0.822351   -2.923280   -0.793984
     51          6           0        0.214223   -0.687177    0.017776
     52          1           0        1.183320   -0.743724    0.527303
     53          1           0        0.269907    0.190458   -0.637491
     54          7           0       -0.799901   -0.592649    1.078746
     55          1           0       -0.761954   -1.332380    1.770027
     56          6           0       -1.992427    0.158676    1.010469
     57          8           0       -2.170956    0.998152    0.214297
     58          6           0       -3.136846   -0.249259    1.957042
     59          1           0       -2.843510    0.178493    2.923405
     60          6           0       -3.420273   -1.756208    2.123461
     61          6           0       -3.580463   -2.355746    3.367533
     62          1           0       -3.544321   -1.808887    4.304411
     63          6           0       -3.635181   -3.751074    3.457289
     64          1           0       -3.810265   -4.330926    4.359480
     65          6           0       -3.466938   -4.599507    2.361789
     66          1           0       -3.500595   -5.679141    2.468975
     67          6           0       -3.403790   -4.020203    1.075963
     68          1           0       -3.285531   -4.587484    0.157574
     69          6           0       -3.414653   -2.614935    0.960099
     70          1           0       -3.260951   -2.269713   -0.058811
     71          6           0       31.437201    2.029800   -0.412457
     72          1           0       31.689625    2.845280    0.276547
     73          1           0       30.754110    2.442579   -1.163529
     74          1           0       32.363231    1.583047   -0.796382
     75         16           0       30.606936    0.664683    0.566483
     76          6           0       30.243781   -0.254500   -0.939340
     77          1           0       29.840925   -1.216663   -0.600409
     78          1           0       31.130047   -0.403738   -1.568432
     79          1           0       29.485489    0.291853   -1.513939
     80          8           0       29.272972    1.367903    0.891860
 ---------------------------------------------------------------------

 SCF Done:  E(RB3LYP) =  -2331.26192512     A.U. after   16 cycles

      1  C    Isotropic =   150.2194   Anisotropy =    51.5209

      2  H    Isotropic =    29.0978   Anisotropy =     4.9161

      3  H    Isotropic =    30.7450   Anisotropy =     8.6061

      4  H    Isotropic =    30.1625   Anisotropy =     5.6490

      5  C    Isotropic =   103.3802   Anisotropy =    76.5526

      6  C    Isotropic =   154.5145   Anisotropy =    45.3965

      7  H    Isotropic =    30.2357   Anisotropy =     7.3031

      8  H    Isotropic =    30.1442   Anisotropy =     7.4352

      9  H    Isotropic =    30.2583   Anisotropy =     8.7878

     10  C    Isotropic =   155.7930   Anisotropy =    46.7831

     11  H    Isotropic =    30.5373   Anisotropy =     8.9546

     12  H    Isotropic =    28.7295   Anisotropy =     5.6186

     13  H    Isotropic =    30.7634   Anisotropy =     7.8756

     14  O    Isotropic =   136.5986   Anisotropy =    76.7448

     15  C    Isotropic =    24.3093   Anisotropy =    65.7043

     16  O    Isotropic =    37.2742   Anisotropy =   396.0357

     17  N    Isotropic =   148.4325   Anisotropy =   116.7218

     18  H    Isotropic =    26.5900   Anisotropy =     7.7882

     19  C    Isotropic =   122.7352   Anisotropy =    24.4370

     20  C    Isotropic =     9.1282   Anisotropy =   124.2200

     21  N    Isotropic =   112.2079   Anisotropy =    79.8480

     22  H    Isotropic =    26.4832   Anisotropy =     7.9223

     23  O    Isotropic =   -47.1578   Anisotropy =   550.6413

     24  H    Isotropic =    27.0316   Anisotropy =     5.2020

     25  C    Isotropic =   134.7380   Anisotropy =    21.0196

     26  H    Isotropic =    28.6754   Anisotropy =     6.6135

     27  H    Isotropic =    29.2538   Anisotropy =     5.1489

     28  C    Isotropic =    36.9738   Anisotropy =   192.3529

     29  C    Isotropic =    46.0151   Anisotropy =   173.8389

     30  C    Isotropic =    54.2511   Anisotropy =   156.3854

     31  H    Isotropic =    23.9711   Anisotropy =     6.3735

     32  H    Isotropic =    24.4254   Anisotropy =     5.9529

     33  C    Isotropic =    38.6942   Anisotropy =   175.2477

     34  H    Isotropic =    25.6862   Anisotropy =     6.6476

     35  C    Isotropic =    44.3067   Anisotropy =   178.1783

     36  H    Isotropic =    24.1651   Anisotropy =     4.1428

     37  C    Isotropic =    11.1843   Anisotropy =   126.6384

     38  O    Isotropic =   170.9467   Anisotropy =   142.3145

     39  C    Isotropic =    10.8711   Anisotropy =   148.8892

     40  C    Isotropic =    50.1963   Anisotropy =   162.4297

     41  C    Isotropic =    45.7528   Anisotropy =   189.7538

     42  H    Isotropic =    23.4833   Anisotropy =     5.0308

     43  H    Isotropic =    23.8335   Anisotropy =     4.6007

     44  C    Isotropic =    49.5630   Anisotropy =   170.2894

     45  H    Isotropic =    24.1112   Anisotropy =     6.5073

     46  C    Isotropic =    41.9790   Anisotropy =   194.8186

     47  H    Isotropic =    23.4139   Anisotropy =     4.9705

     48  C    Isotropic =    38.0227   Anisotropy =   164.3987

     49  C    Isotropic =   -38.1428   Anisotropy =   177.9623

     50  O    Isotropic =  -301.2085   Anisotropy =   932.2383

     51  C    Isotropic =   131.0525   Anisotropy =    36.4581

     52  H    Isotropic =    28.5293   Anisotropy =     9.7260

     53  H    Isotropic =    26.7206   Anisotropy =     3.5158

     54  N    Isotropic =   131.4532   Anisotropy =    92.3570

     55  H    Isotropic =    27.9074   Anisotropy =     6.3275

     56  C    Isotropic =    13.1950   Anisotropy =   105.5175

     57  O    Isotropic =   -60.0690   Anisotropy =   641.1839

     58  C    Isotropic =   118.7285   Anisotropy =    17.2905

     59  H    Isotropic =    27.0420   Anisotropy =     5.6412

     60  C    Isotropic =    38.5040   Anisotropy =   185.7467

     61  C    Isotropic =    47.7392   Anisotropy =   176.3081

     62  H    Isotropic =    24.0159   Anisotropy =     7.4742

     63  C    Isotropic =    50.3968   Anisotropy =   185.6012

     64  H    Isotropic =    24.2244   Anisotropy =     5.2115

     65  C    Isotropic =    44.7768   Anisotropy =   189.3952

     66  H    Isotropic =    24.1235   Anisotropy =     5.9406

     67  C    Isotropic =    40.3595   Anisotropy =   193.9156

     68  H    Isotropic =    24.0795   Anisotropy =     9.4353

     69  C    Isotropic =    36.6984   Anisotropy =   200.4426

     70  H    Isotropic =    27.0526   Anisotropy =     6.5580

     71  C    Isotropic =   124.5853   Anisotropy =    81.5348

     72  H    Isotropic =    28.9603   Anisotropy =     6.3734

     73  H    Isotropic =    29.1045   Anisotropy =     3.4340

     74  H    Isotropic =    29.2840   Anisotropy =     8.1941

     75  S    Isotropic =   145.5467   Anisotropy =   463.4243

     76  C    Isotropic =   134.4043   Anisotropy =    67.7872

     77  H    Isotropic =    28.7491   Anisotropy =     7.2341

     78  H    Isotropic =    29.0132   Anisotropy =     7.7358

     79  H    Isotropic =    29.4824   Anisotropy =     4.2434

     80  O    Isotropic =   251.8329   Anisotropy =   157.8519

 The electronic state is 1-A.
 Alpha  occ. eigenvalues --  -88.95814 -19.16897 -19.16767 -19.13570 -19.12687
 Alpha  occ. eigenvalues --  -19.10309 -19.09976 -19.09159 -14.35936 -14.35769
 Alpha  occ. eigenvalues --  -14.35269 -10.33277 -10.30421 -10.28885 -10.28688
 Alpha  occ. eigenvalues --  -10.25513 -10.25389 -10.24981 -10.24587 -10.23891
 Alpha  occ. eigenvalues --  -10.23590 -10.20443 -10.20059 -10.19928 -10.19775
 Alpha  occ. eigenvalues --  -10.19775 -10.19771 -10.19712 -10.19567 -10.19489
 Alpha  occ. eigenvalues --  -10.19332 -10.19001 -10.18992 -10.18985 -10.18700
 Alpha  occ. eigenvalues --  -10.18687 -10.18572 -10.18224 -10.18162 -10.17988
 Alpha  occ. eigenvalues --  -10.16457 -10.15844 -10.15667  -8.03246  -5.99523
 Alpha  occ. eigenvalues --   -5.99402  -5.98901  -1.11971  -1.10229  -1.10120
 Alpha  occ. eigenvalues --   -1.05638  -1.05424  -1.02640  -1.00689  -0.95246
 Alpha  occ. eigenvalues --   -0.93800  -0.93499  -0.87891  -0.86872  -0.86239
 Alpha  occ. eigenvalues --   -0.82712  -0.80040  -0.79430  -0.79291  -0.77111
 Alpha  occ. eigenvalues --   -0.76897  -0.75987  -0.75519  -0.75206  -0.74070
 Alpha  occ. eigenvalues --   -0.71373  -0.71289  -0.70184  -0.69183  -0.68136
 Alpha  occ. eigenvalues --   -0.65445  -0.63952  -0.63758  -0.62563  -0.61845
 Alpha  occ. eigenvalues --   -0.61420  -0.61346  -0.61146  -0.59953  -0.59351
 Alpha  occ. eigenvalues --   -0.58287  -0.57354  -0.56124  -0.55474  -0.53312
 Alpha  occ. eigenvalues --   -0.52563  -0.51471  -0.50887  -0.50543  -0.50262
 Alpha  occ. eigenvalues --   -0.49322  -0.49175  -0.48810  -0.48302  -0.47884
 Alpha  occ. eigenvalues --   -0.47430  -0.47296  -0.47168  -0.46715  -0.46525
 Alpha  occ. eigenvalues --   -0.46414  -0.46015  -0.45895  -0.45406  -0.45136
 Alpha  occ. eigenvalues --   -0.45130  -0.44945  -0.44399  -0.44298  -0.44113
 Alpha  occ. eigenvalues --   -0.43469  -0.42963  -0.42486  -0.42285  -0.42282
 Alpha  occ. eigenvalues --   -0.42236  -0.41479  -0.41175  -0.40998  -0.40719
 Alpha  occ. eigenvalues --   -0.40186  -0.39815  -0.39109  -0.39046  -0.38759
 Alpha  occ. eigenvalues --   -0.38398  -0.38145  -0.37821  -0.37178  -0.36648
 Alpha  occ. eigenvalues --   -0.36634  -0.36125  -0.35961  -0.35720  -0.35574
 Alpha  occ. eigenvalues --   -0.35238  -0.35009  -0.34760  -0.33904  -0.31125
 Alpha  occ. eigenvalues --   -0.30942  -0.30120  -0.29900  -0.29220  -0.28570
 Alpha  occ. eigenvalues --   -0.28383  -0.27756  -0.27649  -0.27496  -0.26767
 Alpha  occ. eigenvalues --   -0.26331  -0.26070  -0.25499  -0.25390  -0.25348
 Alpha  occ. eigenvalues --   -0.24987
 Alpha virt. eigenvalues --   -0.07766  -0.04997  -0.03543  -0.03219  -0.03209
 Alpha virt. eigenvalues --   -0.02074  -0.01658  -0.01314  -0.01105  -0.00842
 Alpha virt. eigenvalues --   -0.00394  -0.00324  -0.00222   0.00131   0.00303

 Mulliken charges:
               1
     1  C   -0.563158
     2  H    0.161621
     3  H    0.160675
     4  H    0.129529
     5  C    0.568732
     6  C   -0.390076
     7  H    0.148811
     8  H    0.141374
     9  H    0.163205
    10  C   -0.651214
    11  H    0.164743
    12  H    0.179604
    13  H    0.134920
    14  O   -0.352904
    15  C    0.757238
    16  O   -0.497873
    17  N   -0.551920
    18  H    0.323590
    19  C   -0.224766
    20  C    0.322799
    21  N   -0.140096
    22  H    0.151167
    23  O   -0.497917
    24  H    0.201721
    25  C   -0.504485
    26  H    0.196501
    27  H    0.183705
    28  C    0.647378
    29  C   -0.207379
    30  C   -0.299386
    31  H    0.189825
    32  H    0.204231
    33  C   -0.221482
    34  H    0.175257
    35  C   -0.444308
    36  H    0.222872
    37  C    0.008761
    38  O   -0.394699
    39  C    0.011884
    40  C   -0.244885
    41  C   -0.027129
    42  H    0.209504
    43  H    0.195108
    44  C   -0.067689
    45  H    0.205816
    46  C   -0.478612
    47  H    0.214174
    48  C    0.345172
    49  C    0.084141
    50  O   -0.423617
    51  C   -0.214926
    52  H    0.202872
    53  H    0.192207
    54  N   -0.101736
    55  H    0.278747
    56  C   -0.401591
    57  O   -0.408650
    58  C   -0.169941
    59  H    0.216625
    60  C    0.635929
    61  C   -0.237408
    62  H    0.179864
    63  C   -0.359689
    64  H    0.152632
    65  C   -0.392402
    66  H    0.167704
    67  C   -0.395273
    68  H    0.196411
    69  C    0.431187
    70  H    0.406971
    71  C   -0.473939
    72  H    0.178264
    73  H    0.175955
    74  H    0.132845
    75  S    0.679581
    76  C   -0.501703
    77  H    0.168579
    78  H    0.154871
    79  H    0.185200
    80  O   -0.699653
 Sum of Mulliken charges =  -0.00000

 Dipole moment (field-independent basis, Debye):
    X=              5.2973    Y=             -0.9464    Z=             -7.0581  Tot=              8.8755
 Quadrupole moment (field-independent basis, Debye-Ang):
   XX=            -42.8504   YY=           -247.3200   ZZ=           -275.3604
   XY=            -34.5338   XZ=            -62.5785   YZ=            -23.5040

 Normal termination of Gaussian 16 at Tue Aug 10 20:42:49 2021.
