 Gaussian 16, Revision C.01,
 Gaussian 16:  ES64L-G16RevC.01  3-Jul-2019

 ----------------------------------------------------------------------
 #P B3LYP/6-311++G(2d,p) scf=tight Int=Ultrafine scrf(Solvent=DiMethylS
 ulfoxide) NMR
 ----------------------------------------------------------------------

 --
 8e
 --
 Symbolic Z-matrix:
 Charge =  0 Multiplicity = 1

                         Standard orientation:
 ---------------------------------------------------------------------
 Center     Atomic      Atomic             Coordinates (Angstroms)
 Number     Number       Type             X           Y           Z
 ---------------------------------------------------------------------
      1          6           0        6.170133   -3.484010   -0.759202
      2          1           0        7.079231   -2.928473   -0.496554
      3          1           0        5.789391   -3.698058    0.246757
      4          1           0        6.369350   -4.392160   -1.339931
      5          6           0        5.199631   -2.539531   -1.479873
      6          6           0        6.030901   -1.858382   -2.669608
      7          1           0        6.721945   -2.628265   -3.035706
      8          1           0        5.314619   -1.548137   -3.439380
      9          1           0        6.576659   -0.963525   -2.346543
     10          6           0        3.991686   -3.279271   -2.011770
     11          1           0        3.578552   -4.026794   -1.323385
     12          1           0        3.181735   -2.605991   -2.317840
     13          1           0        4.300329   -3.774908   -2.940334
     14          8           0        4.839770   -1.428889   -0.677840
     15          6           0        4.026132   -1.532226    0.445299
     16          8           0        3.467054   -2.529853    0.920186
     17          7           0        4.006427   -0.312737    0.963059
     18          1           0        4.578952    0.444068    0.608455
     19          6           0        3.180251   -0.000865    2.161419
     20          6           0        1.691832   -0.366682    2.085400
     21          7           0        1.082237   -0.518581    0.800226
     22          1           0        1.650432   -0.238422    0.009943
     23          8           0        1.058089   -0.536228    3.091601
     24          1           0        3.590870   -0.605947    2.978435
     25          6           0        3.282632    1.473983    2.650181
     26          1           0        4.356006    1.700935    2.646974
     27          1           0        2.960298    1.501850    3.698722
     28          6           0        2.531183    2.557209    1.849459
     29          6           0        3.096378    3.239099    0.689847
     30          6           0        2.295678    4.016322   -0.169543
     31          1           0        2.628609    4.367608   -1.141960
     32          1           0        4.122282    3.144396    0.348786
     33          6           0        1.216520    2.846689    2.136727
     34          1           0        0.737599    2.410512    3.008470
     35          6           0        0.375149    3.638529    1.268490
     36          1           0       -0.665840    3.870293    1.474778
     37          6           0        0.913127    4.052981    0.022001
     38          8           0        0.076022    4.604542   -0.907945
     39          6           0       -0.794105    3.874279   -1.624790
     40          6           0       -2.107184    3.750877   -1.098252
     41          6           0       -2.814165    2.557602   -1.464174
     42          1           0       -3.768522    2.334246   -0.997172
     43          1           0       -2.579364    4.365386   -0.336584
     44          6           0       -0.241783    2.902955   -2.553451
     45          1           0        0.780574    3.033317   -2.894161
     46          6           0       -1.052045    1.864104   -3.018107
     47          1           0       -0.690628    1.146039   -3.747193
     48          6           0       -2.262372    1.648307   -2.354605
     49          6           0       -3.060059    0.435685   -2.710326
     50          8           0       -4.185901    0.477212   -3.042885
     51          6           0       -2.294511   -0.922157   -2.725440
     52          1           0       -2.956728   -1.721952   -3.079703
     53          1           0       -1.461674   -0.846766   -3.435480
     54          7           0       -1.730144   -1.358147   -1.461177
     55          1           0       -2.359480   -1.777978   -0.787481
     56          6           0       -0.457176   -0.948046   -0.966048
     57          8           0        0.367453   -0.315913   -1.662404
     58          6           0       -0.209002   -1.145243    0.532633
     59          1           0       -0.170897   -2.228643    0.699227
     60          6           0       -1.375668   -0.647037    1.415839
     61          6           0       -1.981485   -1.366026    2.473791
     62          1           0       -1.713875   -2.351343    2.842518
     63          6           0       -2.919141   -0.741109    3.338834
     64          1           0       -3.318413   -1.270426    4.198496
     65          6           0       -3.314214    0.594774    3.070331
     66          1           0       -4.117739    1.034111    3.653174
     67          6           0       -2.853003    1.251977    1.981516
     68          1           0       -3.354187    2.180177    1.722769
     69          6           0       -1.798234    0.710288    1.212982
     70          1           0       -1.374989    1.330761    0.428568
     71          6           0       -6.210735   -3.390201   -0.229602
     72          1           0       -6.051933   -3.220732   -1.302285
     73          1           0       -7.010954   -2.825188    0.262855
     74          1           0       -6.391006   -4.463397   -0.093455
     75         16           0       -4.698302   -2.952967    0.775615
     76          6           0       -4.631679   -1.305740   -0.002951
     77          1           0       -5.460597   -0.675799    0.341756
     78          1           0       -4.830630   -1.500877   -1.064175
     79          1           0       -3.682916   -0.849566    0.306201
     80          8           0       -3.427724   -3.581051    0.171262
 ---------------------------------------------------------------------

 SCF Done:  E(RB3LYP) =  -2331.25091640     A.U. after   15 cycles

      1  C    Isotropic =   154.9497   Anisotropy =    43.5804

      2  H    Isotropic =    30.5718   Anisotropy =     7.2949

      3  H    Isotropic =    30.1004   Anisotropy =     5.1536

      4  H    Isotropic =    30.4788   Anisotropy =     9.5496

      5  C    Isotropic =   104.3378   Anisotropy =    61.4318

      6  C    Isotropic =   142.5895   Anisotropy =    58.9701

      7  H    Isotropic =    30.4388   Anisotropy =     8.0441

      8  H    Isotropic =    30.3174   Anisotropy =     6.1107

      9  H    Isotropic =    30.3624   Anisotropy =     6.3067

     10  C    Isotropic =   155.4801   Anisotropy =    37.2979

     11  H    Isotropic =    29.8095   Anisotropy =     5.7075

     12  H    Isotropic =    30.7542   Anisotropy =     7.8258

     13  H    Isotropic =    30.7241   Anisotropy =     7.9967

     14  O    Isotropic =   118.0864   Anisotropy =   139.1398

     15  C    Isotropic =    20.3639   Anisotropy =    66.5805

     16  O    Isotropic =    39.2624   Anisotropy =   392.1765

     17  N    Isotropic =   143.3964   Anisotropy =   107.1098

     18  H    Isotropic =    26.4316   Anisotropy =     5.8570

     19  C    Isotropic =   116.8132   Anisotropy =    26.3602

     20  C    Isotropic =     4.4625   Anisotropy =   111.5988

     21  N    Isotropic =   111.1651   Anisotropy =   116.8602

     22  H    Isotropic =    25.9181   Anisotropy =     6.5727

     23  O    Isotropic =   -74.9565   Anisotropy =   596.3278

     24  H    Isotropic =    27.7153   Anisotropy =     4.6117

     25  C    Isotropic =   142.4512   Anisotropy =    16.3450

     26  H    Isotropic =    28.9065   Anisotropy =     7.0790

     27  H    Isotropic =    28.5405   Anisotropy =     6.8780

     28  C    Isotropic =    40.6421   Anisotropy =   189.1314

     29  C    Isotropic =    40.7987   Anisotropy =   175.8240

     30  C    Isotropic =    50.5915   Anisotropy =   158.2542

     31  H    Isotropic =    23.9600   Anisotropy =     5.9714

     32  H    Isotropic =    24.0577   Anisotropy =     5.9227

     33  C    Isotropic =    41.3126   Anisotropy =   177.9033

     34  H    Isotropic =    25.0956   Anisotropy =     5.9956

     35  C    Isotropic =    47.0210   Anisotropy =   173.1589

     36  H    Isotropic =    24.1171   Anisotropy =     5.3838

     37  C    Isotropic =     6.7114   Anisotropy =   141.0427

     38  O    Isotropic =   162.8153   Anisotropy =   172.9002

     39  C    Isotropic =     6.2683   Anisotropy =   146.8707

     40  C    Isotropic =    42.5908   Anisotropy =   184.5611

     41  C    Isotropic =    41.6232   Anisotropy =   193.9938

     42  H    Isotropic =    23.9155   Anisotropy =     4.4234

     43  H    Isotropic =    23.1376   Anisotropy =     4.4200

     44  C    Isotropic =    43.9352   Anisotropy =   171.5814

     45  H    Isotropic =    23.9565   Anisotropy =     5.7956

     46  C    Isotropic =    41.1207   Anisotropy =   194.8379

     47  H    Isotropic =    23.4176   Anisotropy =     5.5259

     48  C    Isotropic =    37.2522   Anisotropy =   169.6756

     49  C    Isotropic =   -19.5569   Anisotropy =   162.7811

     50  O    Isotropic =  -264.5909   Anisotropy =   858.2447

     51  C    Isotropic =   129.3951   Anisotropy =    44.0039

     52  H    Isotropic =    28.4736   Anisotropy =     7.2339

     53  H    Isotropic =    26.3703   Anisotropy =     3.2936

     54  N    Isotropic =   109.9939   Anisotropy =    93.6596

     55  H    Isotropic =    25.5342   Anisotropy =     9.5528

     56  C    Isotropic =    -7.6299   Anisotropy =   128.0496

     57  O    Isotropic =  -107.0263   Anisotropy =   681.3289

     58  C    Isotropic =   120.5694   Anisotropy =    24.0708

     59  H    Isotropic =    26.9807   Anisotropy =     5.2938

     60  C    Isotropic =    30.6103   Anisotropy =   194.0354

     61  C    Isotropic =    40.2123   Anisotropy =   191.9448

     62  H    Isotropic =    23.7127   Anisotropy =     5.5745

     63  C    Isotropic =    40.8286   Anisotropy =   190.4432

     64  H    Isotropic =    23.8186   Anisotropy =     4.1377

     65  C    Isotropic =    48.0861   Anisotropy =   189.9861

     66  H    Isotropic =    24.2348   Anisotropy =     4.6515

     67  C    Isotropic =    48.8413   Anisotropy =   187.4831

     68  H    Isotropic =    23.9868   Anisotropy =     7.5298

     69  C    Isotropic =    38.4525   Anisotropy =   200.2588

     70  H    Isotropic =    25.9887   Anisotropy =     6.7340

     71  C    Isotropic =   128.1573   Anisotropy =    77.5436

     72  H    Isotropic =    29.3283   Anisotropy =     5.0519

     73  H    Isotropic =    29.4506   Anisotropy =     8.8817

     74  H    Isotropic =    29.1355   Anisotropy =     8.6677

     75  S    Isotropic =   132.1119   Anisotropy =   478.2511

     76  C    Isotropic =   131.1438   Anisotropy =    67.4083

     77  H    Isotropic =    30.1478   Anisotropy =     4.0758

     78  H    Isotropic =    29.3094   Anisotropy =     5.1244

     79  H    Isotropic =    31.0398   Anisotropy =    15.3458

     80  O    Isotropic =   257.8711   Anisotropy =   190.4688

 The electronic state is 1-A.
 Alpha  occ. eigenvalues --  -88.95757 -19.16523 -19.16252 -19.13934 -19.12073
 Alpha  occ. eigenvalues --  -19.11327 -19.10890 -19.10008 -14.35685 -14.35506
 Alpha  occ. eigenvalues --  -14.33975 -10.33408 -10.30518 -10.29142 -10.27787
 Alpha  occ. eigenvalues --  -10.26170 -10.24931 -10.24713 -10.24393 -10.24311
 Alpha  occ. eigenvalues --  -10.22439 -10.20772 -10.20292 -10.20243 -10.20102
 Alpha  occ. eigenvalues --  -10.19886 -10.19873 -10.19857 -10.19840 -10.19762
 Alpha  occ. eigenvalues --  -10.19604 -10.19478 -10.19094 -10.19066 -10.18942
 Alpha  occ. eigenvalues --  -10.18842 -10.18789 -10.18667 -10.18016 -10.17901
 Alpha  occ. eigenvalues --  -10.16485 -10.16082 -10.15959  -8.03186  -5.99474
 Alpha  occ. eigenvalues --   -5.99333  -5.98829  -1.10689  -1.10317  -1.09369
 Alpha  occ. eigenvalues --   -1.06693  -1.05298  -1.02692  -1.01252  -0.95114
 Alpha  occ. eigenvalues --   -0.93320  -0.92156  -0.87553  -0.86324  -0.86277
 Alpha  occ. eigenvalues --   -0.81920  -0.79963  -0.79841  -0.79220  -0.77560
 Alpha  occ. eigenvalues --   -0.76718  -0.75694  -0.75470  -0.74848  -0.73745
 Alpha  occ. eigenvalues --   -0.71693  -0.70614  -0.69724  -0.69201  -0.68367
 Alpha  occ. eigenvalues --   -0.65176  -0.64230  -0.63835  -0.62377  -0.62051
 Alpha  occ. eigenvalues --   -0.61681  -0.60945  -0.60683  -0.59445  -0.58510
 Alpha  occ. eigenvalues --   -0.57353  -0.57045  -0.56083  -0.55191  -0.52683
 Alpha  occ. eigenvalues --   -0.52623  -0.51619  -0.51372  -0.50435  -0.50050
 Alpha  occ. eigenvalues --   -0.49133  -0.49085  -0.48228  -0.48202  -0.47870
 Alpha  occ. eigenvalues --   -0.47825  -0.47661  -0.47152  -0.47076  -0.46790
 Alpha  occ. eigenvalues --   -0.46159  -0.45850  -0.45625  -0.45259  -0.45163
 Alpha  occ. eigenvalues --   -0.44858  -0.44459  -0.44354  -0.44213  -0.43498
 Alpha  occ. eigenvalues --   -0.43047  -0.42868  -0.42730  -0.42180  -0.42148
 Alpha  occ. eigenvalues --   -0.41898  -0.41831  -0.41508  -0.40871  -0.40424
 Alpha  occ. eigenvalues --   -0.39960  -0.39811  -0.39488  -0.39195  -0.38779
 Alpha  occ. eigenvalues --   -0.38583  -0.38263  -0.37453  -0.37242  -0.36862
 Alpha  occ. eigenvalues --   -0.36749  -0.36713  -0.36389  -0.36071  -0.35989
 Alpha  occ. eigenvalues --   -0.35651  -0.34910  -0.34688  -0.33339  -0.31498
 Alpha  occ. eigenvalues --   -0.30899  -0.30501  -0.29965  -0.29228  -0.28831
 Alpha  occ. eigenvalues --   -0.28496  -0.27705  -0.27246  -0.27051  -0.26508
 Alpha  occ. eigenvalues --   -0.25987  -0.25672  -0.25393  -0.25156  -0.25024
 Alpha  occ. eigenvalues --   -0.24819
 Alpha virt. eigenvalues --   -0.06523  -0.04806  -0.03715  -0.03425  -0.03167
 Alpha virt. eigenvalues --   -0.02830  -0.02567  -0.01260  -0.01132  -0.00790
 Alpha virt. eigenvalues --   -0.00610  -0.00336   0.00229   0.00425   0.00601

 Mulliken charges:
               1
     1  C   -0.626111
     2  H    0.152792
     3  H    0.173637
     4  H    0.157139
     5  C    0.758605
     6  C   -0.501456
     7  H    0.144560
     8  H    0.142796
     9  H    0.141175
    10  C   -0.705851
    11  H    0.169086
    12  H    0.180715
    13  H    0.171877
    14  O   -0.327371
    15  C    0.300525
    16  O   -0.405571
    17  N   -0.427447
    18  H    0.317810
    19  C    0.004268
    20  C   -0.233170
    21  N   -0.043126
    22  H    0.270690
    23  O   -0.377966
    24  H    0.195589
    25  C   -0.857428
    26  H    0.201291
    27  H    0.204382
    28  C    0.595779
    29  C   -0.220590
    30  C   -0.250186
    31  H    0.175522
    32  H    0.181908
    33  C   -0.118615
    34  H    0.212457
    35  C   -0.256323
    36  H    0.206080
    37  C    0.099368
    38  O   -0.394107
    39  C    0.052586
    40  C   -0.333554
    41  C   -0.177099
    42  H    0.214144
    43  H    0.206574
    44  C   -0.170364
    45  H    0.201684
    46  C   -0.377432
    47  H    0.192692
    48  C    0.562774
    49  C   -0.004748
    50  O   -0.351675
    51  C   -0.059691
    52  H    0.225516
    53  H    0.182548
    54  N   -0.109005
    55  H    0.332920
    56  C   -0.089956
    57  O   -0.420079
    58  C    0.018619
    59  H    0.226739
    60  C    0.460505
    61  C   -0.448680
    62  H    0.180551
    63  C   -0.325066
    64  H    0.169787
    65  C   -0.370812
    66  H    0.156357
    67  C   -0.262599
    68  H    0.207086
    69  C   -0.106011
    70  H    0.471277
    71  C   -0.502287
    72  H    0.175461
    73  H    0.178570
    74  H    0.189261
    75  S    0.534655
    76  C   -0.749092
    77  H    0.182009
    78  H    0.218565
    79  H    0.436620
    80  O   -0.532080
 Sum of Mulliken charges =  -0.00000

 Dipole moment (field-independent basis, Debye):
    X=             -2.3099    Y=              2.8307    Z=             -1.0412  Tot=              3.7990
 Quadrupole moment (field-independent basis, Debye-Ang):
   XX=           -196.2140   YY=           -281.2275   ZZ=           -267.8903
   XY=             15.4736   XZ=            -21.1742   YZ=             14.8489

 Normal termination of Gaussian 16 at Tue Aug 10 21:38:29 2021.
