 Gaussian 16, Revision C.01,
 Gaussian 16:  ES64L-G16RevC.01  3-Jul-2019

 ----------------------------------------------------------------------
 #P B3LYP/6-311++G(2d,p) scf=tight Int=Ultrafine scrf(Solvent=DiMethylS
 ulfoxide) NMR
 ----------------------------------------------------------------------

 --
 8e
 --
 Symbolic Z-matrix:
 Charge =  0 Multiplicity = 1

                         Standard orientation:
 ---------------------------------------------------------------------
 Center     Atomic      Atomic             Coordinates (Angstroms)
 Number     Number       Type             X           Y           Z
 ---------------------------------------------------------------------
      1          6           0        6.514640   -0.865850    0.397590
      2          1           0        7.457809   -0.327531    0.244849
      3          1           0        6.204240   -0.784668    1.445510
      4          1           0        6.719518   -1.891820    0.068797
      5          6           0        5.558734   -0.294525   -0.568933
      6          6           0        5.722464    1.180562   -0.737264
      7          1           0        5.561071    1.805455    0.148856
      8          1           0        6.729393    1.491218   -1.041958
      9          1           0        4.929507    1.580033   -1.381005
     10          6           0        5.808546   -0.862989   -2.031930
     11          1           0        5.197734   -0.277420   -2.729780
     12          1           0        6.856378   -0.638270   -2.267897
     13          1           0        5.593096   -1.932287   -2.150218
     14          8           0        4.214803   -0.337669   -0.115042
     15          6           0        3.665191   -1.560961    0.052264
     16          8           0        4.294810   -2.590113   -0.061846
     17          7           0        2.264010   -1.505232    0.091582
     18          1           0        1.844445   -0.602783    0.282637
     19          6           0        1.343961   -2.614164    0.446463
     20          6           0        0.012053   -2.593167   -0.311902
     21          7           0       -0.311536   -1.424343   -1.033005
     22          1           0        0.123068   -0.533197   -0.822267
     23          8           0       -0.626897   -3.629942   -0.333747
     24          1           0        1.791565   -3.487021   -0.044981
     25          6           0        1.196338   -2.775695    1.945822
     26          1           0        2.167709   -2.750616    2.453621
     27          1           0        0.634855   -3.699302    2.132314
     28          6           0        0.209909   -1.745333    2.533469
     29          6           0        0.764315   -0.561285    2.970231
     30          6           0       -0.104717    0.401887    3.472064
     31          1           0        0.356350    1.334044    3.785584
     32          1           0        1.836680   -0.389348    2.949709
     33          6           0       -1.141494   -2.046259    2.611321
     34          1           0       -1.618349   -2.961044    2.272681
     35          6           0       -2.014806   -1.059767    3.114812
     36          1           0       -3.091360   -1.193104    3.166536
     37          6           0       -1.469129    0.193013    3.511045
     38          8           0       -2.194453    1.331296    3.641550
     39          6           0       -2.419470    2.023993    2.533005
     40          6           0       -3.217396    1.407201    1.549382
     41          6           0       -3.070445    1.833643    0.192509
     42          1           0       -3.682334    1.364203   -0.572350
     43          1           0       -3.773355    0.505071    1.783247
     44          6           0       -1.649101    3.188410    2.218129
     45          1           0       -0.889955    3.487564    2.934014
     46          6           0       -1.558259    3.663893    0.899266
     47          1           0       -0.811884    4.437724    0.743670
     48          6           0       -2.221285    2.902422   -0.155068
     49          6           0       -2.008693    3.276594   -1.623900
     50          8           0       -1.586252    4.331831   -2.007703
     51          6           0       -2.120281    2.142088   -2.595950
     52          1           0       -3.165405    1.811686   -2.645655
     53          1           0       -1.829850    2.644646   -3.526909
     54          7           0       -1.283411    1.005062   -2.327472
     55          1           0       -0.741021    0.932868   -1.474945
     56          6           0       -1.478313   -0.232344   -2.881089
     57          8           0       -1.911623   -0.324778   -4.004294
     58          6           0       -1.383110   -1.495363   -2.063969
     59          1           0       -1.071182   -2.227282   -2.819903
     60          6           0       -2.784605   -1.786360   -1.525698
     61          6           0       -3.802995   -2.346473   -2.340443
     62          1           0       -3.547225   -2.362495   -3.395826
     63          6           0       -5.000974   -2.743736   -1.822471
     64          1           0       -5.675753   -3.243051   -2.511736
     65          6           0       -5.296269   -2.509621   -0.515842
     66          1           0       -6.335747   -2.630954   -0.228428
     67          6           0       -4.330794   -2.024345    0.383668
     68          1           0       -4.464233   -1.928380    1.457195
     69          6           0       -3.078005   -1.657201   -0.114457
     70          1           0       -2.314133   -1.178656    0.492189
     71          6           0        2.083595    3.080145    1.053647
     72          1           0        2.956548    3.717619    0.870218
     73          1           0        2.075111    2.632382    2.055317
     74          1           0        1.222908    3.760050    1.019348
     75         16           0        1.969259    1.807727   -0.180383
     76          6           0        2.022901    2.902064   -1.653475
     77          1           0        1.662385    2.378465   -2.547209
     78          1           0        3.060352    3.239729   -1.761528
     79          1           0        1.398107    3.801476   -1.593237
     80          8           0        0.550407    1.236885   -0.203395
 ---------------------------------------------------------------------

 SCF Done:  E(RB3LYP) =  -2331.23454987     A.U. after   15 cycles

      1  C    Isotropic =   156.1320   Anisotropy =    39.1232

      2  H    Isotropic =    30.6923   Anisotropy =     9.0927

      3  H    Isotropic =    30.4034   Anisotropy =     6.8840

      4  H    Isotropic =    29.3705   Anisotropy =     7.1374

      5  C    Isotropic =   108.2736   Anisotropy =    63.9742

      6  C    Isotropic =   150.4390   Anisotropy =    50.9261

      7  H    Isotropic =    30.7428   Anisotropy =     5.9780

      8  H    Isotropic =    30.8491   Anisotropy =     8.9705

      9  H    Isotropic =    30.8075   Anisotropy =     7.9724

     10  C    Isotropic =   149.1389   Anisotropy =    50.5240

     11  H    Isotropic =    30.8284   Anisotropy =     5.7469

     12  H    Isotropic =    30.4959   Anisotropy =     8.5087

     13  H    Isotropic =    29.6382   Anisotropy =     6.5160

     14  O    Isotropic =   112.8461   Anisotropy =    92.1476

     15  C    Isotropic =    19.2813   Anisotropy =    68.9762

     16  O    Isotropic =    19.4841   Anisotropy =   422.2793

     17  N    Isotropic =   140.8480   Anisotropy =    89.2715

     18  H    Isotropic =    26.9017   Anisotropy =     8.6935

     19  C    Isotropic =   120.1552   Anisotropy =    24.5448

     20  C    Isotropic =     2.5464   Anisotropy =   119.3255

     21  N    Isotropic =   114.2987   Anisotropy =   115.1126

     22  H    Isotropic =    23.9606   Anisotropy =    10.1599

     23  O    Isotropic =   -84.2051   Anisotropy =   618.4879

     24  H    Isotropic =    27.3580   Anisotropy =     4.1491

     25  C    Isotropic =   140.3498   Anisotropy =     9.8795

     26  H    Isotropic =    29.0937   Anisotropy =     6.0899

     27  H    Isotropic =    28.2762   Anisotropy =     6.2243

     28  C    Isotropic =    42.3316   Anisotropy =   195.6863

     29  C    Isotropic =    44.0671   Anisotropy =   167.1275

     30  C    Isotropic =    48.8727   Anisotropy =   170.7308

     31  H    Isotropic =    24.3107   Anisotropy =     5.8159

     32  H    Isotropic =    24.1230   Anisotropy =     6.2986

     33  C    Isotropic =    46.4714   Anisotropy =   171.7751

     34  H    Isotropic =    24.0555   Anisotropy =     6.1332

     35  C    Isotropic =    46.8231   Anisotropy =   172.6748

     36  H    Isotropic =    23.4574   Anisotropy =     3.7522

     37  C    Isotropic =    13.4954   Anisotropy =   136.0851

     38  O    Isotropic =   163.8906   Anisotropy =   159.8268

     39  C    Isotropic =     2.1154   Anisotropy =   158.6851

     40  C    Isotropic =    44.7543   Anisotropy =   174.6389

     41  C    Isotropic =    34.9477   Anisotropy =   197.8382

     42  H    Isotropic =    24.4792   Anisotropy =     6.1842

     43  H    Isotropic =    23.7107   Anisotropy =     5.3982

     44  C    Isotropic =    41.4927   Anisotropy =   171.6440

     45  H    Isotropic =    23.7304   Anisotropy =     5.6303

     46  C    Isotropic =    35.2401   Anisotropy =   203.7240

     47  H    Isotropic =    23.2996   Anisotropy =     4.5293

     48  C    Isotropic =    33.5868   Anisotropy =   174.6745

     49  C    Isotropic =   -19.5067   Anisotropy =   166.4601

     50  O    Isotropic =  -258.1580   Anisotropy =   872.1389

     51  C    Isotropic =   128.3975   Anisotropy =    15.6564

     52  H    Isotropic =    27.7642   Anisotropy =     3.4763

     53  H    Isotropic =    27.8412   Anisotropy =     8.3293

     54  N    Isotropic =   139.8969   Anisotropy =   112.3495

     55  H    Isotropic =    25.6999   Anisotropy =    14.2778

     56  C    Isotropic =     2.6057   Anisotropy =   124.6102

     57  O    Isotropic =   -87.4766   Anisotropy =   610.2432

     58  C    Isotropic =   113.4754   Anisotropy =    19.2758

     59  H    Isotropic =    26.5440   Anisotropy =     7.6683

     60  C    Isotropic =    27.5487   Anisotropy =   184.7296

     61  C    Isotropic =    47.3734   Anisotropy =   180.6089

     62  H    Isotropic =    23.9259   Anisotropy =     9.6517

     63  C    Isotropic =    57.6507   Anisotropy =   178.1680

     64  H    Isotropic =    24.2040   Anisotropy =     4.8995

     65  C    Isotropic =    55.7478   Anisotropy =   182.4934

     66  H    Isotropic =    24.2814   Anisotropy =     4.7524

     67  C    Isotropic =    52.9134   Anisotropy =   183.0514

     68  H    Isotropic =    23.4596   Anisotropy =     8.2035

     69  C    Isotropic =    35.0669   Anisotropy =   206.1915

     70  H    Isotropic =    24.1976   Anisotropy =     7.8306

     71  C    Isotropic =   145.5919   Anisotropy =    49.3395

     72  H    Isotropic =    29.3521   Anisotropy =     8.6600

     73  H    Isotropic =    28.8690   Anisotropy =     4.8142

     74  H    Isotropic =    28.8099   Anisotropy =     6.4186

     75  S    Isotropic =   148.3794   Anisotropy =   437.3978

     76  C    Isotropic =   138.4587   Anisotropy =    65.5154

     77  H    Isotropic =    29.3684   Anisotropy =     4.9046

     78  H    Isotropic =    29.6527   Anisotropy =     9.0291

     79  H    Isotropic =    29.2042   Anisotropy =     4.4104

     80  O    Isotropic =   260.4919   Anisotropy =   222.4291

 The electronic state is 1-A.
 Alpha  occ. eigenvalues --  -88.96592 -19.16985 -19.16663 -19.13609 -19.11463
 Alpha  occ. eigenvalues --  -19.11421 -19.10751 -19.10658 -14.35090 -14.34486
 Alpha  occ. eigenvalues --  -14.33941 -10.33213 -10.29690 -10.28624 -10.28137
 Alpha  occ. eigenvalues --  -10.25914 -10.24715 -10.24225 -10.23955 -10.23378
 Alpha  occ. eigenvalues --  -10.22044 -10.20815 -10.20718 -10.20593 -10.20487
 Alpha  occ. eigenvalues --  -10.20384 -10.19988 -10.19565 -10.19454 -10.19387
 Alpha  occ. eigenvalues --  -10.19152 -10.19005 -10.18538 -10.18518 -10.18308
 Alpha  occ. eigenvalues --  -10.18302 -10.18195 -10.18034 -10.17855 -10.17506
 Alpha  occ. eigenvalues --  -10.16495 -10.15694 -10.15639  -8.04149  -6.00466
 Alpha  occ. eigenvalues --   -6.00301  -5.99709  -1.12196  -1.11951  -1.07799
 Alpha  occ. eigenvalues --   -1.06967  -1.06303  -1.03692  -1.03062  -0.94615
 Alpha  occ. eigenvalues --   -0.93693  -0.92220  -0.87911  -0.86580  -0.86365
 Alpha  occ. eigenvalues --   -0.82506  -0.81286  -0.80282  -0.79356  -0.77657
 Alpha  occ. eigenvalues --   -0.77076  -0.76400  -0.75760  -0.75441  -0.73900
 Alpha  occ. eigenvalues --   -0.72830  -0.70977  -0.70464  -0.69180  -0.68284
 Alpha  occ. eigenvalues --   -0.64921  -0.64400  -0.63751  -0.62930  -0.62275
 Alpha  occ. eigenvalues --   -0.61580  -0.61209  -0.60413  -0.59127  -0.58757
 Alpha  occ. eigenvalues --   -0.58064  -0.57502  -0.56710  -0.54934  -0.53611
 Alpha  occ. eigenvalues --   -0.52665  -0.52011  -0.51530  -0.50796  -0.49833
 Alpha  occ. eigenvalues --   -0.49367  -0.49025  -0.48824  -0.48252  -0.48013
 Alpha  occ. eigenvalues --   -0.47914  -0.47502  -0.47360  -0.47231  -0.46998
 Alpha  occ. eigenvalues --   -0.46776  -0.46461  -0.46048  -0.45608  -0.45437
 Alpha  occ. eigenvalues --   -0.45248  -0.44891  -0.44592  -0.44129  -0.43780
 Alpha  occ. eigenvalues --   -0.43694  -0.43396  -0.43071  -0.42798  -0.42633
 Alpha  occ. eigenvalues --   -0.42478  -0.42359  -0.41279  -0.40654  -0.40304
 Alpha  occ. eigenvalues --   -0.40227  -0.39832  -0.39547  -0.39230  -0.38980
 Alpha  occ. eigenvalues --   -0.38332  -0.38096  -0.37768  -0.37465  -0.37024
 Alpha  occ. eigenvalues --   -0.36785  -0.36650  -0.36183  -0.35975  -0.35748
 Alpha  occ. eigenvalues --   -0.34884  -0.34653  -0.33999  -0.33539  -0.31465
 Alpha  occ. eigenvalues --   -0.30902  -0.30542  -0.29552  -0.29161  -0.28891
 Alpha  occ. eigenvalues --   -0.28071  -0.27917  -0.27728  -0.27161  -0.26901
 Alpha  occ. eigenvalues --   -0.26753  -0.26329  -0.26179  -0.25319  -0.25299
 Alpha  occ. eigenvalues --   -0.24645
 Alpha virt. eigenvalues --   -0.07902  -0.04889  -0.04182  -0.03399  -0.02812
 Alpha virt. eigenvalues --   -0.01958  -0.01314  -0.01037  -0.00982  -0.00474
 Alpha virt. eigenvalues --   -0.00306  -0.00074   0.00294   0.00512   0.00951

 Mulliken charges:
               1
     1  C   -0.562842
     2  H    0.163168
     3  H    0.144606
     4  H    0.163435
     5  C    0.727710
     6  C   -0.484563
     7  H    0.163640
     8  H    0.152926
     9  H    0.153794
    10  C   -0.620006
    11  H    0.131284
    12  H    0.176886
    13  H    0.165922
    14  O   -0.360328
    15  C    0.542811
    16  O   -0.412466
    17  N   -0.472039
    18  H    0.287734
    19  C   -0.385321
    20  C   -0.059719
    21  N   -0.359635
    22  H    0.087921
    23  O   -0.351399
    24  H    0.164303
    25  C   -0.621190
    26  H    0.199485
    27  H    0.179294
    28  C    0.931583
    29  C   -0.435460
    30  C   -0.325828
    31  H    0.182894
    32  H    0.217456
    33  C   -0.296763
    34  H    0.236491
    35  C   -0.522661
    36  H    0.209147
    37  C    0.194218
    38  O   -0.391649
    39  C    0.222663
    40  C   -0.225972
    41  C   -0.371576
    42  H    0.170138
    43  H    0.182979
    44  C   -0.145324
    45  H    0.197291
    46  C   -0.278106
    47  H    0.197606
    48  C    0.307782
    49  C    0.215839
    50  O   -0.401217
    51  C   -0.272008
    52  H    0.199649
    53  H    0.188546
    54  N   -0.348063
    55  H    0.280997
    56  C    0.265365
    57  O   -0.483320
    58  C    0.172624
    59  H    0.204901
    60  C    0.339935
    61  C   -0.071488
    62  H    0.182200
    63  C   -0.394636
    64  H    0.160112
    65  C   -0.432571
    66  H    0.155597
    67  C   -0.037040
    68  H    0.166561
    69  C   -0.100955
    70  H    0.525867
    71  C   -0.467054
    72  H    0.216339
    73  H    0.233837
    74  H    0.198689
    75  S    0.465490
    76  C   -0.705385
    77  H    0.235403
    78  H    0.208115
    79  H    0.207234
    80  O   -0.281879
 Sum of Mulliken charges =  -0.00000

 Dipole moment (field-independent basis, Debye):
    X=              6.1309    Y=              8.2064    Z=              5.6576  Tot=             11.7022
 Quadrupole moment (field-independent basis, Debye-Ang):
   XX=           -240.7037   YY=           -285.7537   ZZ=           -282.7421
   XY=             36.2806   XZ=             -6.2844   YZ=              3.3841

 Normal termination of Gaussian 16 at Tue Aug 10 20:21:16 2021.
