 Gaussian 16, Revision C.01,
 Gaussian 16:  ES64L-G16RevC.01  3-Jul-2019

 ----------------------------------------------------------------------
 #P B3LYP/6-311++G(2d,p) scf=tight Int=Ultrafine scrf(Solvent=DiMethylS
 ulfoxide) NMR
 ----------------------------------------------------------------------

 --
 8e
 --
 Symbolic Z-matrix:
 Charge =  0 Multiplicity = 1

                         Standard orientation:
 ---------------------------------------------------------------------
 Center     Atomic      Atomic             Coordinates (Angstroms)
 Number     Number       Type             X           Y           Z
 ---------------------------------------------------------------------
      1          6           0        7.140468   -2.358899   -0.084349
      2          1           0        7.918199   -3.010891   -0.501233
      3          1           0        7.725683   -1.436976    0.026852
      4          1           0        6.788213   -2.643666    0.914282
      5          6           0        5.893754   -2.266262   -1.057366
      6          6           0        6.400604   -1.917801   -2.520588
      7          1           0        5.631853   -1.463891   -3.157961
      8          1           0        7.270940   -1.250753   -2.507472
      9          1           0        6.718458   -2.847380   -3.007083
     10          6           0        5.065932   -3.530209   -1.117422
     11          1           0        4.868295   -3.992448   -0.142905
     12          1           0        4.142579   -3.284725   -1.656402
     13          1           0        5.549419   -4.336360   -1.682032
     14          8           0        5.147725   -1.086386   -0.584844
     15          6           0        4.565584   -0.958912    0.628197
     16          8           0        4.450037   -1.902936    1.393640
     17          7           0        3.961030    0.305058    0.689987
     18          1           0        4.088381    0.890445   -0.126153
     19          6           0        3.242553    0.685474    1.997130
     20          6           0        1.855302    0.144239    2.250984
     21          7           0        1.328849   -0.553355    1.162466
     22          1           0        1.992565   -0.638083    0.402516
     23          8           0        1.335248    0.060058    3.312974
     24          1           0        3.866931    0.246472    2.785725
     25          6           0        3.206748    2.205260    2.183220
     26          1           0        4.180443    2.705017    2.104470
     27          1           0        2.783255    2.375928    3.180655
     28          6           0        2.288372    2.868362    1.123442
     29          6           0        2.652363    3.126008   -0.212526
     30          6           0        1.784744    3.535925   -1.209758
     31          1           0        2.252573    3.826390   -2.145612
     32          1           0        3.636311    2.880846   -0.601854
     33          6           0        0.938259    3.081370    1.489350
     34          1           0        0.645046    2.905108    2.519949
     35          6           0       -0.018673    3.408688    0.474535
     36          1           0       -1.087525    3.503715    0.643978
     37          6           0        0.421013    3.683777   -0.885118
     38          8           0       -0.416894    3.962743   -1.945742
     39          6           0       -1.165401    2.951274   -2.372524
     40          6           0       -2.411099    2.789837   -1.836695
     41          6           0       -3.043088    1.593509   -1.894297
     42          1           0       -4.025027    1.494214   -1.440920
     43          1           0       -2.935079    3.657145   -1.445494
     44          6           0       -0.488455    1.907079   -2.903561
     45          1           0        0.553882    2.068385   -3.161269
     46          6           0       -1.147619    0.646929   -3.081769
     47          1           0       -0.570183   -0.154959   -3.532737
     48          6           0       -2.365684    0.514532   -2.477573
     49          6           0       -3.050307   -0.797211   -2.435855
     50          8           0       -4.278156   -0.860148   -2.541223
     51          6           0       -2.078316   -2.035466   -2.145575
     52          1           0       -2.689239   -2.934730   -2.289814
     53          1           0       -1.296211   -1.998254   -2.913727
     54          7           0       -1.528445   -1.915928   -0.799576
     55          1           0       -2.200208   -2.065342   -0.055948
     56          6           0       -0.324820   -1.358510   -0.539731
     57          8           0        0.527550   -1.157122   -1.365988
     58          6           0       -0.035190   -1.075851    0.931532
     59          1           0        0.046771   -2.049810    1.428273
     60          6           0       -1.164790   -0.262818    1.646912
     61          6           0       -1.654474   -0.743484    2.883240
     62          1           0       -1.307284   -1.713799    3.225963
     63          6           0       -2.539429    0.013737    3.635884
     64          1           0       -2.875367   -0.388721    4.586642
     65          6           0       -3.182562    1.138161    3.093885
     66          1           0       -4.093573    1.540066    3.528742
     67          6           0       -2.742143    1.538828    1.822431
     68          1           0       -3.196916    2.411360    1.362288
     69          6           0       -1.759400    0.905310    1.050163
     70          1           0       -1.441424    1.265031    0.076346
     71          6           0       -6.425782   -2.834361   -0.484439
     72          1           0       -7.492226   -2.765708   -0.237800
     73          1           0       -6.202129   -3.893126   -0.668263
     74          1           0       -6.095484   -2.243302   -1.347568
     75         16           0       -5.508005   -2.354119    0.931193
     76          6           0       -5.709247   -0.579772    0.686545
     77          1           0       -5.660774   -0.237795   -0.354799
     78          1           0       -4.856932   -0.029327    1.102816
     79          1           0       -6.699230   -0.291580    1.060840
     80          8           0       -4.144540   -2.690644    0.472141
 ---------------------------------------------------------------------

 SCF Done:  E(RB3LYP) =  -2331.24288601     A.U. after   15 cycles

      1  C    Isotropic =   152.6637   Anisotropy =    50.6087

      2  H    Isotropic =    30.4376   Anisotropy =     9.2536

      3  H    Isotropic =    30.5113   Anisotropy =     6.8440

      4  H    Isotropic =    29.4298   Anisotropy =     5.6651

      5  C    Isotropic =    91.8287   Anisotropy =    74.6611

      6  C    Isotropic =   147.9054   Anisotropy =    57.9169

      7  H    Isotropic =    30.1066   Anisotropy =     6.4491

      8  H    Isotropic =    30.1905   Anisotropy =     7.7038

      9  H    Isotropic =    30.6047   Anisotropy =     8.2021

     10  C    Isotropic =   156.9449   Anisotropy =    40.5868

     11  H    Isotropic =    29.6391   Anisotropy =     6.0585

     12  H    Isotropic =    30.3131   Anisotropy =     6.5253

     13  H    Isotropic =    30.5314   Anisotropy =     8.8293

     14  O    Isotropic =   107.1908   Anisotropy =    84.0892

     15  C    Isotropic =    17.9836   Anisotropy =    66.7491

     16  O    Isotropic =    26.1374   Anisotropy =   408.1257

     17  N    Isotropic =   131.5970   Anisotropy =   126.9451

     18  H    Isotropic =    25.6565   Anisotropy =     7.8031

     19  C    Isotropic =   115.7887   Anisotropy =    26.3573

     20  C    Isotropic =    13.9786   Anisotropy =   108.3022

     21  N    Isotropic =   117.1375   Anisotropy =    89.3526

     22  H    Isotropic =    26.1014   Anisotropy =    10.8882

     23  O    Isotropic =   -48.5881   Anisotropy =   589.9661

     24  H    Isotropic =    27.4739   Anisotropy =     4.6429

     25  C    Isotropic =   142.5352   Anisotropy =    19.0052

     26  H    Isotropic =    28.5288   Anisotropy =     7.9106

     27  H    Isotropic =    28.7596   Anisotropy =     5.9290

     28  C    Isotropic =    36.8973   Anisotropy =   194.9129

     29  C    Isotropic =    48.4118   Anisotropy =   169.6364

     30  C    Isotropic =    49.3726   Anisotropy =   162.0607

     31  H    Isotropic =    23.8836   Anisotropy =     5.8988

     32  H    Isotropic =    24.4775   Anisotropy =     6.6883

     33  C    Isotropic =    38.1131   Anisotropy =   176.4160

     34  H    Isotropic =    25.0557   Anisotropy =     7.1988

     35  C    Isotropic =    42.4000   Anisotropy =   179.4841

     36  H    Isotropic =    24.1853   Anisotropy =     5.1804

     37  C    Isotropic =     5.0993   Anisotropy =   140.2329

     38  O    Isotropic =   183.8014   Anisotropy =   129.6361

     39  C    Isotropic =    20.9877   Anisotropy =   143.4437

     40  C    Isotropic =    56.3417   Anisotropy =   165.9258

     41  C    Isotropic =    49.2696   Anisotropy =   185.8264

     42  H    Isotropic =    23.7560   Anisotropy =     4.8056

     43  H    Isotropic =    24.1341   Anisotropy =     4.1465

     44  C    Isotropic =    45.2154   Anisotropy =   178.5553

     45  H    Isotropic =    23.8467   Anisotropy =     6.6162

     46  C    Isotropic =    41.6471   Anisotropy =   196.2527

     47  H    Isotropic =    23.2049   Anisotropy =     5.3340

     48  C    Isotropic =    41.2207   Anisotropy =   169.0639

     49  C    Isotropic =   -37.4469   Anisotropy =   181.9368

     50  O    Isotropic =  -290.1509   Anisotropy =   895.2658

     51  C    Isotropic =   128.3730   Anisotropy =    39.1747

     52  H    Isotropic =    28.5009   Anisotropy =     7.2443

     53  H    Isotropic =    26.2430   Anisotropy =     3.0067

     54  N    Isotropic =   133.1810   Anisotropy =    80.3452

     55  H    Isotropic =    25.7130   Anisotropy =    10.7967

     56  C    Isotropic =    12.5562   Anisotropy =   117.6503

     57  O    Isotropic =   -49.8995   Anisotropy =   638.0817

     58  C    Isotropic =   117.5627   Anisotropy =     9.7024

     59  H    Isotropic =    26.7681   Anisotropy =     6.1217

     60  C    Isotropic =    29.8892   Anisotropy =   194.9782

     61  C    Isotropic =    38.4605   Anisotropy =   172.8648

     62  H    Isotropic =    23.8938   Anisotropy =     7.4364

     63  C    Isotropic =    48.5575   Anisotropy =   190.4265

     64  H    Isotropic =    24.3157   Anisotropy =     3.6108

     65  C    Isotropic =    47.3887   Anisotropy =   188.7840

     66  H    Isotropic =    23.7157   Anisotropy =     4.2835

     67  C    Isotropic =    47.6764   Anisotropy =   194.5754

     68  H    Isotropic =    24.3455   Anisotropy =     7.8494

     69  C    Isotropic =    37.7797   Anisotropy =   197.4223

     70  H    Isotropic =    26.1216   Anisotropy =     6.8296

     71  C    Isotropic =   138.2023   Anisotropy =    60.7910

     72  H    Isotropic =    29.4130   Anisotropy =     9.8300

     73  H    Isotropic =    29.3925   Anisotropy =     7.6952

     74  H    Isotropic =    28.3537   Anisotropy =     3.2260

     75  S    Isotropic =   168.9211   Anisotropy =   430.4906

     76  C    Isotropic =   137.9926   Anisotropy =    65.8843

     77  H    Isotropic =    29.6603   Anisotropy =     2.3526

     78  H    Isotropic =    30.4453   Anisotropy =    13.6329

     79  H    Isotropic =    29.9609   Anisotropy =     7.7761

     80  O    Isotropic =   283.3033   Anisotropy =   230.2114

 The electronic state is 1-A.
 Alpha  occ. eigenvalues --  -88.95173 -19.16392 -19.16122 -19.13569 -19.11188
 Alpha  occ. eigenvalues --  -19.11087 -19.10737 -19.08947 -14.35747 -14.35398
 Alpha  occ. eigenvalues --  -14.33526 -10.33577 -10.29142 -10.28608 -10.28088
 Alpha  occ. eigenvalues --  -10.25765 -10.25472 -10.24485 -10.23992 -10.23859
 Alpha  occ. eigenvalues --  -10.22931 -10.20353 -10.19981 -10.19962 -10.19938
 Alpha  occ. eigenvalues --  -10.19685 -10.19504 -10.19473 -10.19105 -10.18896
 Alpha  occ. eigenvalues --  -10.18879 -10.18875 -10.18747 -10.18685 -10.18651
 Alpha  occ. eigenvalues --  -10.18552 -10.18375 -10.18299 -10.18205 -10.18089
 Alpha  occ. eigenvalues --  -10.16878 -10.16383 -10.16376  -8.02773  -5.99073
 Alpha  occ. eigenvalues --   -5.98933  -5.98370  -1.11012  -1.10971  -1.07699
 Alpha  occ. eigenvalues --   -1.07264  -1.05586  -1.04014  -1.02087  -0.94489
 Alpha  occ. eigenvalues --   -0.93849  -0.91641  -0.88841  -0.86612  -0.86237
 Alpha  occ. eigenvalues --   -0.81823  -0.80118  -0.79997  -0.79471  -0.77825
 Alpha  occ. eigenvalues --   -0.77436  -0.76157  -0.75557  -0.74974  -0.73948
 Alpha  occ. eigenvalues --   -0.71966  -0.70574  -0.69740  -0.69092  -0.68093
 Alpha  occ. eigenvalues --   -0.64843  -0.64704  -0.63957  -0.62173  -0.61825
 Alpha  occ. eigenvalues --   -0.61436  -0.60937  -0.60584  -0.59711  -0.58009
 Alpha  occ. eigenvalues --   -0.57374  -0.56524  -0.56375  -0.55530  -0.53098
 Alpha  occ. eigenvalues --   -0.52641  -0.51558  -0.50936  -0.50713  -0.50148
 Alpha  occ. eigenvalues --   -0.49372  -0.48954  -0.48337  -0.47903  -0.47679
 Alpha  occ. eigenvalues --   -0.47507  -0.47224  -0.47186  -0.46683  -0.46662
 Alpha  occ. eigenvalues --   -0.46242  -0.46176  -0.46094  -0.45515  -0.45283
 Alpha  occ. eigenvalues --   -0.45063  -0.44788  -0.44459  -0.44163  -0.44006
 Alpha  occ. eigenvalues --   -0.43405  -0.42715  -0.42547  -0.42378  -0.41795
 Alpha  occ. eigenvalues --   -0.41488  -0.41419  -0.41311  -0.40892  -0.40419
 Alpha  occ. eigenvalues --   -0.40015  -0.39643  -0.39176  -0.39071  -0.38883
 Alpha  occ. eigenvalues --   -0.38605  -0.38221  -0.37566  -0.37351  -0.37114
 Alpha  occ. eigenvalues --   -0.37044  -0.36537  -0.36017  -0.35936  -0.35577
 Alpha  occ. eigenvalues --   -0.35144  -0.34997  -0.34561  -0.33992  -0.31301
 Alpha  occ. eigenvalues --   -0.30752  -0.30489  -0.30219  -0.28980  -0.28917
 Alpha  occ. eigenvalues --   -0.28623  -0.27902  -0.27457  -0.27054  -0.26785
 Alpha  occ. eigenvalues --   -0.26414  -0.25763  -0.25482  -0.25143  -0.24792
 Alpha  occ. eigenvalues --   -0.24690
 Alpha virt. eigenvalues --   -0.07221  -0.04738  -0.03637  -0.03176  -0.02947
 Alpha virt. eigenvalues --   -0.02095  -0.01702  -0.01216  -0.00573  -0.00443
 Alpha virt. eigenvalues --   -0.00239   0.00013   0.00460   0.00540   0.00895

 Mulliken charges:
               1
     1  C   -0.664063
     2  H    0.173410
     3  H    0.147556
     4  H    0.169898
     5  C    0.633745
     6  C   -0.480772
     7  H    0.148270
     8  H    0.154293
     9  H    0.145683
    10  C   -0.579133
    11  H    0.158608
    12  H    0.154276
    13  H    0.173519
    14  O   -0.297002
    15  C    0.236701
    16  O   -0.428301
    17  N   -0.560685
    18  H    0.313008
    19  C    0.575115
    20  C   -0.330627
    21  N   -0.180490
    22  H    0.415673
    23  O   -0.394674
    24  H    0.194319
    25  C   -0.890754
    26  H    0.200252
    27  H    0.190582
    28  C    0.480587
    29  C   -0.079211
    30  C   -0.262511
    31  H    0.190383
    32  H    0.149248
    33  C   -0.362364
    34  H    0.229289
    35  C   -0.074369
    36  H    0.180635
    37  C   -0.054619
    38  O   -0.360524
    39  C   -0.033501
    40  C   -0.263050
    41  C   -0.159960
    42  H    0.196281
    43  H    0.186414
    44  C   -0.022767
    45  H    0.204405
    46  C   -0.420775
    47  H    0.207601
    48  C    0.428821
    49  C    0.009701
    50  O   -0.400520
    51  C   -0.242580
    52  H    0.211637
    53  H    0.187095
    54  N   -0.096614
    55  H    0.379598
    56  C   -0.431551
    57  O   -0.433753
    58  C   -0.056157
    59  H    0.188911
    60  C    0.424599
    61  C   -0.104539
    62  H    0.170378
    63  C   -0.321673
    64  H    0.150361
    65  C   -0.540349
    66  H    0.188652
    67  C    0.039797
    68  H    0.185003
    69  C    0.030342
    70  H    0.670345
    71  C   -0.512249
    72  H    0.155640
    73  H    0.177130
    74  H    0.206298
    75  S    0.675898
    76  C   -0.594749
    77  H    0.211340
    78  H    0.161764
    79  H    0.186723
    80  O   -0.614902
 Sum of Mulliken charges =  -0.00000

 Dipole moment (field-independent basis, Debye):
    X=             -3.0606    Y=              2.0487    Z=             -3.2900  Tot=              4.9385
 Quadrupole moment (field-independent basis, Debye-Ang):
   XX=           -201.9005   YY=           -264.4411   ZZ=           -273.0087
   XY=              6.1486   XZ=            -27.9914   YZ=             12.9432

 Normal termination of Gaussian 16 at Tue Aug 10 21:39:31 2021.
